ITEM: TIMESTEP
	0
ITEM: NUMBER OF ATOMS
	0
ITEM: BOX BOUNDS
	0	31
	0	32
	0	33
ITEM: ATOMS id type x y z size1 size2 radius time
ITEM: TIMESTEP
	2465559
ITEM: NUMBER OF ATOMS
	46
ITEM: BOX BOUNDS
	0	31
	0	32
	0	33
ITEM: ATOMS id type x y z size1 size2 radius time
	216	1	28.7814	19.2958	6.74699	1	0	0.433	6.0016
	241	1	2.79204	22.465	3.83472	1	0	0.433	6.0016
	333	1	24.9335	4.11384	3.10364	1	0	0.433	6.0016
	360	4	22.7023	19.9772	9.86261	1	3	0.433013	6.0016
	366	4	25.9052	23.4916	3.21472	1	1	0.433013	6.0016
	405	1	17.7133	31.7168	22.8385	1	0	0.433	6.0016
	406	1	11.9769	12.0997	19.8203	1	0	0.433	6.0016
	463	4	28.0843	14.0744	28.0321	1	2	0.433013	6.0016
	476	4	2.70955	0.914971	9.71527	1	4	0.433013	6.0016
	481	1	2.86468	5.49053	27.6643	1	0	0.433	6.0016
	508	1	3.49587	17.0261	7.83416	1	0	0.433	6.0016
	509	1	7.29872	17.9646	10.2398	1	0	0.433	6.0016
	510	1	6.56388	27.5442	5.28234	1	0	0.433	6.0016
	550	4	28.3732	3.62872	23.659	1	4	0.433013	6.0016
	553	4	5.42701	18.1799	22.5501	1	4	0.433013	6.0016
	557	1	28.8886	13.765	2.70676	1	0	0.433	6.0016
	558	1	4.86043	25.5581	5.26895	1	0	0.433	6.0016
	561	1	8.96618	30.662	26.9809	1	0	0.433	6.0016
	573	4	6.80276	28.7757	29.6996	1	3	0.433013	6.0016
	577	4	0.95904	6.03662	22.939	1	4	0.433013	6.0016
	578	4	27.9904	7.40731	8.4598	1	4	0.433013	6.0016
	596	4	4.12251	11.3792	10.206	1	4	0.433013	6.0016
	609	4	11.8674	4.1026	1.81869	1	1	0.433013	6.0016
	612	4	27.5153	17.3715	28.5312	1	1	0.433013	6.0016
	613	4	1.66377	14.6071	4.19325	3	2	0.650764	6.0016
	618	1	17.961	20.6942	1.6625	1	0	0.433	6.0016
	619	1	11.7607	4.17648	8.22586	1	0	0.433	6.0016
	633	4	9.48709	15.8241	13.6798	1	3	0.433013	6.0016
	634	4	19.8209	3.06202	31.4389	1	2	0.433013	6.0016
	639	4	7.06923	0.61928	9.12957	1	1	0.433013	6.0016
	642	4	22.7479	0.916699	17.3476	1	8	0.433013	6.0016
	645	5	16.5162	26.7017	31.1128	5	2	0.377	6.0016
	651	4	28.2735	3.06404	28.6424	1	8	0.433013	6.0016
	652	1	12.4275	17.1706	16.387	1	0	0.433	6.0016
	653	1	29.6932	31.7779	20.4152	1	0	0.433	6.0016
	654	1	7.88798	19.4222	8.75796	1	0	0.433	6.0016
	656	1	16.4215	29.8291	29.4721	1	0	0.433	6.0016
	669	4	22.75	31	24.5	1	6	0.433013	6.0016
	670	4	28.1393	8.79187	29.1769	1	3	0.433013	6.0016
	671	4	12.0984	16.3562	25.8283	1	4	0.433013	6.0016
	674	4	9	15.5	24.75	1	10	0.433013	6.0016
	675	4	19.2892	27.1047	26.7215	1	1	0.433013	6.0016
	676	4	9.76417	1.15834	21.1794	1	1	0.433013	6.0016
	682	5	18.2039	21.9496	15.078	5	2	0.377	6.0016
	684	4	13.9716	21.5177	31.1591	1	4	0.433013	6.0016
	685	4	13.3703	27.1826	31.6201	1	8	0.433013	6.0016
ITEM: TIMESTEP
	3142570
ITEM: NUMBER OF ATOMS
	65
ITEM: BOX BOUNDS
	0	31
	0	32
	0	33
ITEM: ATOMS id type x y z size1 size2 radius time
	968	1	29.3929	10.9768	19.9331	1	0	0.433	12.0003
	1023	4	16.6569	31.0221	29.6412	1	1	0.433013	12.0003
	1034	1	30.4692	11.2545	31.8935	1	0	0.433	12.0003
	1049	4	23.079	25.6088	18.9535	1	1	0.433013	12.0003
	1128	4	18.7981	13.0107	18.8644	1	2	0.433013	12.0003
	1149	1	9.19044	8.24521	13.6063	1	0	0.433	12.0003
	1170	4	22.8741	29.0911	4.76103	1	3	0.433013	12.0003
	1183	1	29.0578	31.7706	30.9708	1	0	0.433	12.0003
	1222	4	28.0646	3.09785	28.7756	3	10	0.650764	12.0003
	1234	1	5.58912	27.4162	18.3899	1	0	0.433	12.0003
	1271	1	15.0204	9.2977	32.0226	1	0	0.433	12.0003
	1276	1	15.592	19.5189	31.325	1	0	0.433	12.0003
	1289	4	1.53897	5.30105	9.08709	1	4	0.433013	12.0003
	1294	4	27.75	9	28.5	1	8	0.433013	12.0003
	1295	4	14.2778	21.4444	32.1389	1	8	0.433013	12.0003
	1313	4	28.2601	17.0611	9.89726	1	1	0.433013	12.0003
	1318	1	7.55953	26.0749	22.7061	1	0	0.433	12.0003
	1319	1	20.3008	27.8574	2.74698	1	0	0.433	12.0003
	1321	1	28.6897	24.411	24.2482	1	0	0.433	12.0003
	1322	1	25.1499	20.5672	20.4667	1	0	0.433	12.0003
	1336	4	14	6.75	7.5	1	6	0.433013	12.0003
	1338	4	17.3333	22.3333	14.9722	1	8	0.433013	12.0003
	1343	4	23.0696	7.6432	22.4273	1	3	0.433013	12.0003
	1352	4	5.09087	3.84801	21.6982	1	3	0.433013	12.0003
	1363	4	15.7912	18.2077	7.11715	1	2	0.433013	12.0003
	1364	4	30.6082	4.52518	4.35079	3	4	0.650764	12.0003
	1365	1	8.00815	21.7821	31.8824	1	0	0.433	12.0003
	1366	1	22.7929	26.0489	25.7417	1	0	0.433	12.0003
	1368	1	15.9072	21.113	6.98843	1	0	0.433	12.0003
	1369	1	5.91918	10.9047	31.4057	1	0	0.433	12.0003
	1384	4	27.4566	5.67552	3.29725	1	1	0.433013	12.0003
	1387	4	22.8671	5.34608	29.7514	1	1	0.433013	12.0003
	1392	4	18.6661	23.7623	9.32434	1	6	0.433013	12.0003
	1395	4	22.5732	18.4855	6.91774	1	4	0.433013	12.0003
	1402	4	2.53974	18.6617	24.1617	1	2	0.433013	12.0003
	1412	1	17.7013	9.29024	28.4711	1	0	0.433	12.0003
	1413	1	9.81665	0.351726	30.8707	1	0	0.433	12.0003
	1414	1	25.6756	14.603	27.1598	1	0	0.433	12.0003
	1428	4	21.6173	9.41393	5.58762	1	4	0.433013	12.0003
	1431	4	16.9855	5.72124	9.13279	1	1	0.433013	12.0003
	1432	4	29.4268	5.71621	21.8308	1	1	0.433013	12.0003
	1439	4	5.82713	13.6866	18.2969	1	4	0.433013	12.0003
	1440	4	8.86874	15.2731	25.1021	6	22	0.83534	12.0003
	1442	4	2.6588	0.89821	10.2058	4	15	0.722233	12.0003
	1448	4	16.9518	28.3883	31.1487	1	4	0.433013	12.0003
	1449	5	25.9099	9.38644	19.5344	8	2	1.06419	12.0003
	1451	1	23.7643	6.93162	0.0654428	1	0	0.433	12.0003
	1452	4	22.2054	8.39244	1.3431	1	1	0.433013	12.0003
	1453	1	23.9791	28.0943	6.80659	1	0	0.433	12.0003
	1454	1	30.6992	19.3205	12.3045	1	0	0.433	12.0003
	1455	1	4.24806	27.3001	5.17182	1	0	0.433	12.0003
	1456	1	20.0992	21.7965	6.82869	1	0	0.433	12.0003
	1468	4	23	0.9175	17.6675	1	9	0.433013	12.0003
	1469	4	5.42886	0.118911	17.9654	1	9	0.433013	12.0003
	1471	4	0.364199	31.9294	22.5386	1	1	0.433013	12.0003
	1472	4	0.320904	19.455	30.6694	1	1	0.433013	12.0003
	1474	4	19.9529	12.0131	15.7582	1	2	0.433013	12.0003
	1477	4	27.5	3	22.75	1	8	0.433013	12.0003
	1478	5	20.9625	0.175741	22.0915	4	3	0.376306	12.0003
	1481	4	23	30.75	24.5	1	7	0.433013	12.0003
	1482	4	1.97452	14.5454	3.70562	1	8	0.433013	12.0003
	1484	4	6.95492	26.0288	0.779462	5	17	0.782585	12.0003
	1487	4	12.1384	27.1907	30.1291	1	8	0.433013	12.0003
	1489	1	24.9471	9.87555	27.2082	1	0	0.433	12.0003
	1490	1	23.4288	14.8777	29.3754	1	0	0.433	12.0003
ITEM: TIMESTEP
	3532965
ITEM: NUMBER OF ATOMS
	60
ITEM: BOX BOUNDS
	0	31
	0	32
	0	33
ITEM: ATOMS id type x y z size1 size2 radius time
	1295	4	14.2778	21.4444	32.1389	1	8	0.433013	18.0004
	1338	4	17.3333	22.3333	14.9722	1	8	0.433013	18.0004
	1343	4	23.0696	7.6432	22.4273	1	3	0.433013	18.0004
	1469	4	5.42886	0.118911	17.9654	1	9	0.433013	18.0004
	1512	4	28.2128	15.8015	28.8299	1	1	0.433013	18.0004
	1518	4	29.3214	9.98841	21.2166	1	1	0.433013	18.0004
	1569	4	21.9965	27.3907	5.71776	1	4	0.433013	18.0004
	1587	4	18.2257	11.1451	29.4856	1	1	0.433013	18.0004
	1588	4	9.84522	5.24761	13.8031	1	1	0.433013	18.0004
	1611	4	23.4145	25.9294	18.6018	1	3	0.433013	18.0004
	1639	1	8.45646	20.361	11.3336	1	0	0.433	18.0004
	1683	4	14.0714	6.78571	7.32143	1	4	0.433013	18.0004
	1704	4	27.9707	3.05515	28.7917	3	11	0.650764	18.0004
	1707	5	21.0608	0.173506	22.1128	5	3	0.377	18.0004
	1715	1	25.1601	8.9865	9.59573	1	0	0.433	18.0004
	1717	4	22.9786	30.3801	24.7559	2	9	0.560991	18.0004
	1733	4	6.39118	4.16296	29.1356	1	1	0.433013	18.0004
	1737	4	8.05777	1.411	22.9523	1	1	0.433013	18.0004
	1747	4	27.7936	9.324	28.7088	3	11	0.650764	18.0004
	1753	4	12.1359	26.9742	30.1738	1	9	0.433013	18.0004
	1759	4	16.0511	17.3192	7.23452	1	4	0.433013	18.0004
	1775	4	0.259609	19.4561	30.6714	1	1	0.433013	18.0004
	1778	1	0.981449	16.8809	9.69458	1	0	0.433	18.0004
	1782	1	21.3128	11.0825	7.12186	1	0	0.433	18.0004
	1797	4	1.28984	17.0641	16.6109	1	4	0.433013	18.0004
	1802	4	14.4446	5.82987	11.5046	1	1	0.433013	18.0004
	1807	4	30.2548	4.32228	4.57752	4	8	0.722233	18.0004
	1815	1	11.5099	11.6021	8.96031	1	0	0.433	18.0004
	1816	1	12.0951	1.77483	3.82537	1	0	0.433	18.0004
	1817	1	3.10978	6.71856	18.7527	1	0	0.433	18.0004
	1828	4	16.9904	5.64749	9.5052	1	2	0.433013	18.0004
	1831	4	17.0887	3.93411	15.4108	1	1	0.433013	18.0004
	1832	5	25.9636	9.35131	19.3722	8	3	1.06419	18.0004
	1837	4	1.97039	14.5807	3.6609	3	11	0.650764	18.0004
	1840	4	15.113	18.949	32.327	1	4	0.433013	18.0004
	1843	4	4.93558	3.60701	22.0488	1	4	0.433013	18.0004
	1853	4	20.4511	21.7687	18.3099	1	1	0.433013	18.0004
	1854	1	14.4596	6.85458	1.7165	1	0	0.433	18.0004
	1855	1	9.87879	20.293	2.83661	1	0	0.433	18.0004
	1856	1	29.2777	1.57222	24.9388	1	0	0.433	18.0004
	1857	1	16.0485	12.4847	1.35982	1	0	0.433	18.0004
	1858	1	26.6086	21.5729	13.5356	1	0	0.433	18.0004
	1874	4	28.7657	22.6629	30.0231	1	1	0.433013	18.0004
	1877	4	2.34898	0.894044	10.3842	3	18	0.650764	18.0004
	1885	4	18.041	13.4086	18.392	1	4	0.433013	18.0004
	1888	4	16.5191	17.6707	10.7369	1	4	0.433013	18.0004
	1891	4	19.7265	11.8399	15.7541	1	4	0.433013	18.0004
	1892	4	12.7714	14.5205	17.7789	1	2	0.433013	18.0004
	1894	1	18.9947	18.0276	30.1141	1	0	0.433	18.0004
	1895	1	30.1282	7.78928	9.64864	1	0	0.433	18.0004
	1896	1	28.2025	4.78091	2.1351	1	0	0.433	18.0004
	1897	1	29.0139	15.4347	10.284	1	0	0.433	18.0004
	1909	4	27.1293	3.17521	22.672	3	15	0.650764	18.0004
	1912	4	9.37984	15.3973	25.4787	8	29	1.86626	18.0004
	1916	4	30.1357	20.3872	26.6854	1	3	0.433013	18.0004
	1918	4	18.225	23.5	8.875	1	9	0.433013	18.0004
	1920	4	8.82099	26.3335	25.6766	1	3	0.433013	18.0004
	1925	4	14.5731	27.4164	22.9968	1	3	0.433013	18.0004
	1926	4	23.1424	1.53297	17.9976	3	9	0.650764	18.0004
	1927	4	7.01289	26.0889	0.850725	6	19	0.83534	18.0004
ITEM: TIMESTEP
	3795575
ITEM: NUMBER OF ATOMS
	62
ITEM: BOX BOUNDS
	0	31
	0	32
	0	33
ITEM: ATOMS id type x y z size1 size2 radius time
	1737	4	8.05777	1.411	22.9523	1	1	0.433013	24.0005
	1837	4	1.97039	14.5807	3.6609	3	11	0.650764	24.0005
	1885	4	18.041	13.4086	18.392	1	4	0.433013	24.0005
	1892	4	12.7714	14.5205	17.7789	1	2	0.433013	24.0005
	1954	4	0.408578	20.5107	27.1486	1	4	0.433013	24.0005
	2041	4	23.4382	25.9078	18.7694	2	3	0.560991	24.0005
	2063	4	15.461	30.9957	8.58272	1	1	0.433013	24.0005
	2066	4	25.0543	15.2865	2.6428	1	1	0.433013	24.0005
	2068	4	14.5487	27.4443	22.8312	1	4	0.433013	24.0005
	2078	4	29.0078	22.4565	29.8866	1	3	0.433013	24.0005
	2085	1	23.6773	18.8608	0.20549	1	0	0.433	24.0005
	2104	4	9.18004	15.2959	25.4515	9	31	1.90569	24.0005
	2110	4	1.52828	17.0498	15.3639	1	4	0.433013	24.0005
	2112	4	23.0348	8.1966	22.9637	1	7	0.433013	24.0005
	2116	4	17.5802	3.62059	14.8225	1	4	0.433013	24.0005
	2125	4	5.50106	0.820541	19.2432	1	9	0.433013	24.0005
	2126	1	25.3286	22.6729	29.4981	1	0	0.433	24.0005
	2127	1	17.1694	12.7056	19.915	1	0	0.433	24.0005
	2129	1	1.17362	27.8329	19.4457	1	0	0.433	24.0005
	2141	4	2.45752	0.826567	10.2869	6	21	0.83534	24.0005
	2144	4	29.131	9.65894	20.9777	1	2	0.433013	24.0005
	2149	4	6.99129	30.9722	12.3667	1	4	0.433013	24.0005
	2158	4	15.9018	23.2067	8.43522	1	2	0.433013	24.0005
	2159	4	11.6819	26.7117	30.2679	4	17	0.722233	24.0005
	2161	4	23.1311	30.2733	24.5462	1	8	0.433013	24.0005
	2162	4	24.9022	1.66631	26.9688	1	1	0.433013	24.0005
	2166	1	26.7964	20.6595	23.6824	1	0	0.433	24.0005
	2181	4	27.5826	9.37126	28.6905	2	11	0.560991	24.0005
	2187	4	11.9628	1.5407	0.698747	1	1	0.433013	24.0005
	2191	4	19.8554	11.8666	15.9201	1	4	0.433013	24.0005
	2194	4	3.63967	8.9087	24.8651	1	4	0.433013	24.0005
	2204	1	13.0598	6.17054	26.4061	1	0	0.433	24.0005
	2210	4	30.9078	8.07273	12.6629	1	1	0.433013	24.0005
	2215	4	14.16	21.1443	31.9184	1	9	0.433013	24.0005
	2218	1	1.40526	1.47138	1.89323	1	0	0.433	24.0005
	2219	1	7.38853	29.1116	24.8186	1	0	0.433	24.0005
	2236	4	10.1899	31.6325	12.5656	1	1	0.433013	24.0005
	2241	4	17	22.75	14.5	1	8	0.433013	24.0005
	2242	4	28.0636	3.10537	28.646	2	14	0.560991	24.0005
	2245	4	28.3217	16.6972	13.6695	1	4	0.433013	24.0005
	2246	4	25.9534	26.1829	15.2135	1	2	0.433013	24.0005
	2247	4	16.3105	17.3508	7.25268	2	4	0.560991	24.0005
	2249	1	0.0539173	5.64819	1.9246	1	0	0.433	24.0005
	2251	1	4.97519	28.2439	8.29979	1	0	0.433	24.0005
	2266	4	17.1163	17.8503	10.6737	1	9	0.433013	24.0005
	2269	4	0.691117	25.6938	2.7705	1	1	0.433013	24.0005
	2270	4	30.2975	4.22801	4.73846	5	11	0.782585	24.0005
	2273	4	12.8597	13.9969	31.922	1	4	0.433013	24.0005
	2276	1	12.1673	29.26	26.0698	1	0	0.433	24.0005
	2277	1	28.1241	4.21634	30.5227	1	0	0.433	24.0005
	2278	1	18.2107	22.0407	8.5304	1	0	0.433	24.0005
	2279	1	10.9221	14.5419	23.5537	1	0	0.433	24.0005
	2290	5	25.9855	9.34978	19.4781	10	3	1.15164	24.0005
	2291	4	18.1548	23.603	9.02596	2	9	0.560991	24.0005
	2292	4	6.92689	26.0685	0.924612	5	20	0.782585	24.0005
	2293	4	27.2295	3.11827	22.663	4	18	0.722233	24.0005
	2294	4	14.7497	5.95028	11.1601	3	5	0.650764	24.0005
	2295	4	8.82476	16.1041	7.54639	1	2	0.433013	24.0005
	2296	4	23.6355	24.5631	14.9567	1	1	0.433013	24.0005
	2297	5	21.179	0.0217903	21.9797	7	3	1.01489	24.0005
	2298	4	23.0272	1.51994	17.9031	1	10	0.433013	24.0005
	2299	4	25.0381	6.50505	16.5235	2	2	0.560991	24.0005
ITEM: TIMESTEP
	4217158
ITEM: NUMBER OF ATOMS
	76
ITEM: BOX BOUNDS
	0	31
	0	32
	0	33
ITEM: ATOMS id type x y z size1 size2 radius time
	1837	4	1.97039	14.5807	3.6609	3	11	0.650764	30.0003
	1885	4	18.041	13.4086	18.392	1	4	0.433013	30.0003
	2144	4	29.131	9.65894	20.9777	1	2	0.433013	30.0003
	2355	4	23.3235	26.0898	18.8911	2	4	0.560991	30.0003
	2359	4	3.10338	5.83774	19.375	1	1	0.433013	30.0003
	2406	4	28.1014	16.706	13.6412	1	4	0.433013	30.0003
	2461	4	26.2667	28.2676	14.9094	1	8	0.433013	30.0003
	2466	4	27.1084	3.8778	25.0014	5	18	0.782585	30.0003
	2498	4	0.960745	25.5459	2.51367	1	2	0.433013	30.0003
	2540	4	14.75	6	11.5	1	6	0.433013	30.0003
	2561	4	1.08928	17.1492	15.2268	1	4	0.433013	30.0003
	2572	1	7.07093	12.1639	28.263	1	0	0.433	30.0003
	2585	4	0.0148452	15.1172	13.6341	1	2	0.433013	30.0003
	2587	4	5.85418	28.5966	10.5745	1	1	0.433013	30.0003
	2628	4	23.6482	16.2047	21.3412	1	1	0.433013	30.0003
	2638	4	25.4713	0.708393	10.9448	1	3	0.433013	30.0003
	2647	4	26.0894	9.14717	19.3384	1	4	0.433013	30.0003
	2652	4	22.6736	8.77625	30.0843	1	1	0.433013	30.0003
	2690	4	23.8982	7.9469	23.1214	1	8	0.433013	30.0003
	2693	1	0.00514266	7.40891	27.8663	1	0	0.433	30.0003
	2717	4	0.156204	7.85643	13.5204	1	4	0.433013	30.0003
	2720	1	28.0848	27.8067	12.4165	1	0	0.433	30.0003
	2725	4	1.3565	25.2754	14.4531	1	3	0.433013	30.0003
	2727	4	22.95	1.45	18.35	1	8	0.433013	30.0003
	2728	4	21.2785	21.449	20.4443	1	1	0.433013	30.0003
	2730	1	2.74315	30.5116	23.9029	1	0	0.433	30.0003
	2736	1	29.7367	31.5981	3.29803	1	0	0.433	30.0003
	2748	4	0.594072	22.3955	13.7277	1	2	0.433013	30.0003
	2752	4	11.3815	1.70828	6.58537	1	2	0.433013	30.0003
	2774	1	30.8171	7.83818	21.0184	1	0	0.433	30.0003
	2775	1	0.726253	18.1847	27.2035	1	0	0.433	30.0003
	2776	1	5.72496	4.52249	4.89949	1	0	0.433	30.0003
	2789	4	23.4897	18.7702	30.5042	1	1	0.433013	30.0003
	2793	4	14.5389	23.8548	8.58172	1	4	0.433013	30.0003
	2794	5	12.1625	22.4016	3.39958	3	1	0.748379	30.0003
	2807	4	18.9974	27.858	28.4297	1	4	0.433013	30.0003
	2810	4	23.1773	22.251	28.618	1	4	0.433013	30.0003
	2813	4	4.31526	27.3595	15.5985	1	4	0.433013	30.0003
	2814	4	7.26354	24.2719	12.214	1	3	0.433013	30.0003
	2818	1	5.99915	14.2396	25.0099	1	0	0.433	30.0003
	2819	1	2.21133	6.0494	11.9171	1	0	0.433	30.0003
	2820	1	18.7676	28.8161	18.6512	1	0	0.433	30.0003
	2833	4	5.43368	0.628654	19.2538	2	10	0.560991	30.0003
	2838	4	26.613	25.8586	18.8354	1	3	0.433013	30.0003
	2841	4	30.3846	3.8515	5.10508	2	14	0.560991	30.0003
	2851	4	6.94773	26.2255	0.838925	6	21	0.83534	30.0003
	2855	4	30.7229	24.2403	29.1277	1	4	0.433013	30.0003
	2856	4	0.300111	30.7328	23.8451	1	2	0.433013	30.0003
	2858	1	11.0959	9.92867	21.6662	1	0	0.433	30.0003
	2859	1	2.95174	27.4495	14.0874	1	0	0.433	30.0003
	2860	1	17.514	23.5695	26.4266	1	0	0.433	30.0003
	2861	1	11.7871	26.176	3.00333	1	0	0.433	30.0003
	2862	1	7.72815	18.0563	32.3204	1	0	0.433	30.0003
	2873	5	29.7821	29.2987	11.0096	12	2	1.22808	30.0003
	2874	4	15.3555	31.1229	8.66636	1	3	0.433013	30.0003
	2875	4	27.6125	9.29117	28.6769	2	12	0.560991	30.0003
	2877	4	7.08234	19.4264	15.7473	1	1	0.433013	30.0003
	2878	4	11.6909	26.6621	30.154	5	20	0.782585	30.0003
	2879	4	18.3035	23.645	9.109	2	10	0.560991	30.0003
	2881	4	11.5529	20.8095	25.469	1	2	0.433013	30.0003
	2883	4	22.823	30.2922	24.7231	3	13	0.650764	30.0003
	2885	1	13.9283	12.2774	24.3288	1	0	0.433	30.0003
	2886	1	26.0786	10.5229	28.0379	1	0	0.433	30.0003
	2887	1	21.0162	5.03114	12.526	1	0	0.433	30.0003
	2888	1	24.7044	28.2644	0.321892	1	0	0.433	30.0003
	2889	1	4.87732	23.0036	3.98796	1	0	0.433	30.0003
	2904	4	21.5073	20.7863	7.61713	1	1	0.433013	30.0003
	2905	4	2.58795	0.65346	10.342	6	23	0.83534	30.0003
	2906	4	14.1717	21.0678	31.8893	3	12	0.650764	30.0003
	2908	4	17.418	17.8104	10.9691	3	15	0.650764	30.0003
	2916	4	9	14.75	5.5	1	8	0.433013	30.0003
	2923	4	16.3338	13.6465	10.3073	1	4	0.433013	30.0003
	2924	4	19.7099	11.9227	15.6249	2	5	0.560991	30.0003
	2928	4	16.9867	22.9148	14.5157	3	9	0.650764	30.0003
	2931	4	9.57234	15.2644	25.4516	13	43	2.03925	30.0003
	2933	4	28.3601	3.21977	28.7435	4	18	0.722233	30.0003
ITEM: TIMESTEP
	4458930
ITEM: NUMBER OF ATOMS
	84
ITEM: BOX BOUNDS
	0	31
	0	32
	0	33
ITEM: ATOMS id type x y z size1 size2 radius time
	1885	4	18.041	13.4086	18.392	1	4	0.433013	36.0014
	2359	4	3.10338	5.83774	19.375	1	1	0.433013	36.0014
	2793	4	14.5389	23.8548	8.58172	1	4	0.433013	36.0014
	2838	4	26.613	25.8586	18.8354	1	3	0.433013	36.0014
	2856	4	0.300111	30.7328	23.8451	1	2	0.433013	36.0014
	2881	4	11.5529	20.8095	25.469	1	2	0.433013	36.0014
	2923	4	16.3338	13.6465	10.3073	1	4	0.433013	36.0014
	2956	4	23.5155	16.1365	21.7275	1	2	0.433013	36.0014
	2970	1	9.91339	13.0078	27.5953	1	0	0.433	36.0014
	2998	4	2.47141	0.577396	10.3381	5	23	0.782585	36.0014
	3019	4	25.9015	3.0048	29.6906	1	2	0.433013	36.0014
	3043	4	7.74133	19.2519	2.41405	1	1	0.433013	36.0014
	3100	4	17.3675	17.8774	10.8084	3	15	0.650764	36.0014
	3106	4	0.818067	15.669	13.644	1	7	0.433013	36.0014
	3143	4	22.2904	29.5571	4.49337	1	1	0.433013	36.0014
	3160	4	24.3846	22.8205	29.1378	1	4	0.433013	36.0014
	3161	4	21.4614	21.2296	21.0277	1	4	0.433013	36.0014
	3165	1	28.8057	15.9507	4.74945	1	0	0.433	36.0014
	3185	4	9.63391	27.325	20.9746	1	1	0.433013	36.0014
	3189	4	16.3717	25.1118	22.8148	1	1	0.433013	36.0014
	3192	1	12.768	11.7266	30.3995	1	0	0.433	36.0014
	3207	4	8.89791	29.3785	25.5215	1	1	0.433013	36.0014
	3215	1	4.77252	27.2004	1.59404	1	0	0.433	36.0014
	3230	4	14.4072	0.70661	0.764741	1	3	0.433013	36.0014
	3246	1	25.5486	22.9115	9.28494	1	0	0.433	36.0014
	3249	1	18.1779	14.7142	3.9765	1	0	0.433	36.0014
	3263	4	9.86109	21.9665	15.1793	1	1	0.433013	36.0014
	3266	4	28.4524	3.22406	28.5194	4	19	0.722233	36.0014
	3269	4	12.0814	22.3205	3.32151	1	4	0.433013	36.0014
	3270	5	14.4522	19.549	6.69054	4	1	0.376306	36.0014
	3283	4	28.8039	9.14641	21.1195	2	7	0.560991	36.0014
	3284	4	16.9088	22.9692	14.9278	2	10	0.560991	36.0014
	3289	1	24.1603	18.7715	16.4597	1	0	0.433	36.0014
	3301	4	1.10834	22.8557	14.1775	2	5	0.560991	36.0014
	3305	4	22.5961	14.8546	27.6557	1	1	0.433013	36.0014
	3308	4	28.0393	18.0114	31.3939	1	1	0.433013	36.0014
	3310	4	17.4626	29.3084	13.4452	1	2	0.433013	36.0014
	3317	4	29.5219	29.1651	11.1208	1	4	0.433013	36.0014
	3328	4	15.2035	13.6577	24.3645	13	43	2.03925	36.0014
	3333	1	15.6394	0.850978	6.50106	1	0	0.433	36.0014
	3345	4	30.4245	3.73456	5.08218	3	15	0.650764	36.0014
	3346	5	20.0783	29.7808	19.5743	5	1	0.377	36.0014
	3347	4	0.563694	25.9864	3.00362	2	6	0.560991	36.0014
	3352	4	6.04891	15.9789	30.2621	1	2	0.433013	36.0014
	3353	4	10.8618	7.39826	14.1895	1	7	0.433013	36.0014
	3354	4	27.0881	4.00385	25.2128	5	20	0.782585	36.0014
	3359	1	12.928	31.6939	16.3673	1	0	0.433	36.0014
	3360	1	9.77955	6.58406	16.7578	1	0	0.433	36.0014
	3362	1	5.42017	5.76791	24.7333	1	0	0.433	36.0014
	3364	4	4.29637	27.3735	15.4733	2	4	0.560991	36.0014
	3366	1	28.0189	18.1455	16.6364	1	0	0.433	36.0014
	3367	1	30.503	24.4343	14.6375	1	0	0.433	36.0014
	3369	1	4.52911	13.3668	17.0138	1	0	0.433	36.0014
	3383	4	26.5	28	15.25	1	8	0.433013	36.0014
	3384	4	27.3786	9.31602	28.9698	3	13	0.650764	36.0014
	3393	4	23.0489	25.7839	19.1336	1	4	0.433013	36.0014
	3396	1	2.38793	8.06033	1.13109	1	0	0.433	36.0014
	3397	4	30.119	6.09397	30.5623	1	1	0.433013	36.0014
	3399	4	18.1432	23.435	9.20338	1	9	0.433013	36.0014
	3400	4	20.7923	24.2938	15.3835	1	1	0.433013	36.0014
	3402	1	7.98946	28.651	29.8356	1	0	0.433	36.0014
	3403	4	11.4031	30.0821	27.8937	1	1	0.433013	36.0014
	3404	4	7.05621	20.2284	15.7515	2	6	0.560991	36.0014
	3405	4	20.1494	11.9789	16.112	2	7	0.560991	36.0014
	3406	4	1.1924	24.406	28.8349	2	4	0.560991	36.0014
	3407	4	1.77777	14.6378	3.71152	5	13	0.782585	36.0014
	3408	5	25.2199	31.8096	11.8308	10	3	1.15164	36.0014
	3409	1	26.6378	20.3515	13.6089	1	0	0.433	36.0014
	3410	1	19.9668	4.70989	7.91211	1	0	0.433	36.0014
	3411	1	26.0111	8.73217	10.2872	1	0	0.433	36.0014
	3412	1	9.15185	6.11741	32.8491	1	0	0.433	36.0014
	3413	1	21.6552	5.28037	18.248	1	0	0.433	36.0014
	3428	4	23.1371	29.6624	24.9266	3	18	0.650764	36.0014
	3429	4	11.542	26.6652	30.0944	6	24	0.83534	36.0014
	3430	4	23.0287	1.46192	18.4705	2	9	0.560991	36.0014
	3431	4	8.575	15	5.825	1	9	0.433013	36.0014
	3436	4	18.1051	28.5326	29.0782	1	7	0.433013	36.0014
	3438	4	28.0844	12.989	12.5587	1	4	0.433013	36.0014
	3444	4	6.93001	26.2912	0.776402	6	22	0.83534	36.0014
	3445	4	30.8501	7.44279	13.2919	1	8	0.433013	36.0014
	3448	4	5.33181	0.45365	18.7357	3	15	0.650764	36.0014
	3453	4	14.112	19.7208	31.5124	3	12	0.650764	36.0014
	3456	4	23.4726	8.41839	23.1507	1	8	0.433013	36.0014
	3462	4	15.0702	4.04913	29.5775	1	6	0.433013	36.0014
ITEM: TIMESTEP
	4914583
ITEM: NUMBER OF ATOMS
	95
ITEM: BOX BOUNDS
	0	31
	0	32
	0	33
ITEM: ATOMS id type x y z size1 size2 radius time
	3185	4	9.63391	27.325	20.9746	1	1	0.433013	42.0009
	3192	1	16.268	19.2266	25.8995	1	0	0.433	42.0009
	3207	4	8.89791	29.3785	25.5215	1	1	0.433013	42.0009
	3353	4	10.8618	7.39826	14.1895	1	7	0.433013	42.0009
	3406	4	1.1924	24.406	28.8349	2	4	0.560991	42.0009
	3653	1	9.25721	11.316	31.0922	1	0	0.433	42.0009
	3716	4	18.2046	28.5289	28.9862	1	8	0.433013	42.0009
	3798	4	27.1092	4.15686	25.1876	6	20	0.83534	42.0009
	3848	4	11.6116	0.449429	4.68591	1	2	0.433013	42.0009
	3855	1	25.1744	9.00019	30.8409	1	0	0.433	42.0009
	3856	1	24.6713	17.5605	32.5627	1	0	0.433	42.0009
	3857	1	6.2183	24.0986	7.58713	1	0	0.433	42.0009
	3903	1	21.6455	6.54982	16.0582	1	0	0.433	42.0009
	3923	4	30.9228	7.43047	13.4433	1	10	0.433013	42.0009
	3926	4	6.01323	11.4902	16.071	1	2	0.433013	42.0009
	3940	4	20.497	29.9185	19.4446	1	4	0.433013	42.0009
	3945	4	5.19857	0.710785	18.9739	3	16	0.650764	42.0009
	3966	5	22.2222	29.2244	3.66379	2	3	0.645139	42.0009
	3968	1	15.0812	17.7113	9.55492	1	0	0.433	42.0009
	3985	4	24.8077	1.65332	18.35	1	9	0.433013	42.0009
	4000	4	4.12934	26.6068	21.6939	1	4	0.433013	42.0009
	4001	4	9.61355	31.2778	22.9851	1	1	0.433013	42.0009
	4011	1	12.6766	0.731837	15.5251	1	0	0.433	42.0009
	4042	4	14.8687	23.3697	7.25726	2	4	0.560991	42.0009
	4046	1	6.04137	29.0106	20.3728	1	0	0.433	42.0009
	4059	4	27.6418	12.896	12.4604	3	4	0.650764	42.0009
	4083	1	9.09573	15.4747	12.6815	1	0	0.433	42.0009
	4087	1	14.5768	16.1296	19.8133	1	0	0.433	42.0009
	4088	1	6.19986	25.2228	5.33559	1	0	0.433	42.0009
	4101	4	16.375	28.6562	14.0312	1	7	0.433013	42.0009
	4107	4	14.925	3.425	29.65	1	9	0.433013	42.0009
	4116	4	4.74402	28.2237	5.02947	1	2	0.433013	42.0009
	4119	4	27.6022	9.27841	29.07	4	16	0.722233	42.0009
	4136	4	18	23.5	9.75	1	8	0.433013	42.0009
	4142	1	2.42667	21.9438	24.1224	1	0	0.433	42.0009
	4144	4	24.5884	3.29612	30.3835	2	4	0.560991	42.0009
	4148	1	21.8935	10.8669	16.3634	1	0	0.433	42.0009
	4163	4	28.9423	15.3693	26.2129	1	1	0.433013	42.0009
	4165	4	19.0686	1.34627	20.4366	1	1	0.433013	42.0009
	4166	4	18.5328	13.6152	18.3442	1	8	0.433013	42.0009
	4168	5	14.3236	19.4139	6.73901	4	1	0.376306	42.0009
	4170	1	22.1603	5.99035	0.0447584	1	0	0.433	42.0009
	4172	1	11.208	29.945	17.793	1	0	0.433	42.0009
	4173	1	5.94928	30.45	6.01257	1	0	0.433	42.0009
	4174	1	23.3742	2.13596	18.613	1	0	0.433	42.0009
	4185	4	29.432	2.09394	6.0287	2	16	0.560991	42.0009
	4189	4	14.4359	0.867257	1.02624	2	4	0.560991	42.0009
	4193	4	21	11.5	16.25	1	7	0.433013	42.0009
	4199	4	11.5428	21.0485	25.5959	2	4	0.560991	42.0009
	4201	4	23.2071	29.5559	24.9464	6	22	0.83534	42.0009
	4211	4	25.0439	22.2939	26.7557	1	4	0.433013	42.0009
	4217	4	4.60394	27.7093	16.5921	1	4	0.433013	42.0009
	4218	4	26.3525	28.1242	15.1522	4	19	0.722233	42.0009
	4219	1	0.397386	20.6315	5.44167	1	0	0.433	42.0009
	4222	1	20.948	30.9454	25.3467	1	0	0.433	42.0009
	4236	4	13.3394	13.6962	25.0932	15	50	2.09581	42.0009
	4238	4	16.4269	22.886	15.3903	3	16	0.650764	42.0009
	4240	4	16.8687	17.547	10.6027	6	24	0.83534	42.0009
	4243	4	9.72644	22.8622	21.9777	1	2	0.433013	42.0009
	4244	1	3.85041	19.8741	8.00437	1	0	0.433	42.0009
	4247	1	21.0809	23.9595	9.19836	1	0	0.433	42.0009
	4248	1	12.1308	5.42113	18.4567	1	0	0.433	42.0009
	4259	4	4.45552	10.2278	2.52745	1	1	0.433013	42.0009
	4260	4	5.38056	15.5775	25.342	1	1	0.433013	42.0009
	4261	4	14.0566	20.1609	31.8871	4	17	0.722233	42.0009
	4262	4	28.9796	9.37059	21.1981	2	11	0.560991	42.0009
	4265	4	17.9846	2.2189	8.15949	1	3	0.433013	42.0009
	4267	4	1.96876	22.3444	13.9396	3	15	0.650764	42.0009
	4268	4	0.222222	26.5	3.13889	1	8	0.433013	42.0009
	4270	1	13.9465	13.5308	6.42568	1	0	0.433	42.0009
	4271	1	29.3864	10.3853	24.6485	1	0	0.433	42.0009
	4272	1	10.4072	3.2158	10.903	1	0	0.433	42.0009
	4284	4	5.59008	1.923	9.64795	1	2	0.433013	42.0009
	4287	4	11.6825	26.3763	30.3656	8	28	1.86626	42.0009
	4288	4	6.8105	26.341	0.960827	5	22	0.782585	42.0009
	4289	4	16.582	26.5094	24.3098	1	1	0.433013	42.0009
	4290	4	6.98297	20.481	15.8479	2	7	0.560991	42.0009
	4291	5	23.4714	7.95906	10.6018	10	1	1.15164	42.0009
	4293	4	28.8519	18.0807	24.8043	1	3	0.433013	42.0009
	4294	4	1.66499	14.3895	3.80087	4	17	0.722233	42.0009
	4297	4	23.5	8.75	23	1	9	0.433013	42.0009
	4299	4	16.0398	20.0773	5.53167	1	1	0.433013	42.0009
	4300	4	0.596116	16.6326	14.0517	2	8	0.560991	42.0009
	4301	1	20.2429	8.11359	9.24795	1	0	0.433	42.0009
	4302	1	9.04739	22.3731	13.2893	1	0	0.433	42.0009
	4303	1	19.7108	25.4173	29.6007	1	0	0.433	42.0009
	4304	1	15.6347	25.3906	25.0514	1	0	0.433	42.0009
	4305	1	21.9787	2.08043	30.6218	1	0	0.433	42.0009
	4316	4	11.6511	5.44252	10.9742	1	1	0.433013	42.0009
	4319	4	28.2466	2.98337	28.4246	6	21	0.83534	42.0009
	4320	4	24.0082	9.88595	18.9679	1	2	0.433013	42.0009
	4321	4	8.43333	15.35	6.06667	3	12	0.650764	42.0009
	4322	4	8.63252	17.3749	31.2417	1	1	0.433013	42.0009
	4325	4	0.324374	1.44325	8.84849	8	28	1.86626	42.0009
	4328	4	26.8219	25.518	18.7899	2	6	0.560991	42.0009
ITEM: TIMESTEP
	5142239
ITEM: NUMBER OF ATOMS
	88
ITEM: BOX BOUNDS
	0	31
	0	32
	0	33
ITEM: ATOMS id type x y z size1 size2 radius time
	3207	4	8.89791	29.3785	25.5215	1	1	0.433013	48.0005
	4042	4	14.8687	23.3697	7.25726	2	4	0.560991	48.0005
	4059	4	27.6418	12.896	12.4604	3	4	0.650764	48.0005
	4142	1	11.9267	12.4438	15.6224	1	0	0.433	48.0005
	4144	4	24.5884	3.29612	30.3835	2	4	0.560991	48.0005
	4163	4	28.9423	15.3693	26.2129	1	1	0.433013	48.0005
	4174	1	2.87423	6.63596	25.113	1	0	0.433	48.0005
	4199	4	11.5428	21.0485	25.5959	2	4	0.560991	48.0005
	4244	1	30.8504	18.8741	11.0044	1	0	0.433	48.0005
	4299	4	16.0398	20.0773	5.53167	1	1	0.433013	48.0005
	4355	4	6.88186	20.73	15.9285	1	7	0.433013	48.0005
	4378	4	4.54026	9.98892	2.70123	1	3	0.433013	48.0005
	4390	4	26.8695	25.5716	18.6466	2	7	0.560991	48.0005
	4392	4	12.0558	0.224715	5.21796	1	4	0.433013	48.0005
	4396	1	18.1783	13.1165	2.33337	1	0	0.433	48.0005
	4446	4	1.6234	14.44	3.76446	4	18	0.722233	48.0005
	4487	4	9.08239	29.444	13.6099	1	1	0.433013	48.0005
	4539	1	9.02169	30.8469	13.4809	1	0	0.433	48.0005
	4542	1	8.96109	10.543	18.727	1	0	0.433	48.0005
	4562	4	5.2482	18.9479	22.8366	1	2	0.433013	48.0005
	4569	4	20.5691	8.69517	8.46652	1	1	0.433013	48.0005
	4572	1	5.15254	31.414	11.039	1	0	0.433	48.0005
	4588	4	6.70082	13.9254	8.8462	1	1	0.433013	48.0005
	4592	4	11.1589	26.3275	30.1067	8	29	1.86626	48.0005
	4593	5	14.1864	19.5532	6.78251	4	2	0.376306	48.0005
	4603	4	14.2582	20.2237	32.0027	4	18	0.722233	48.0005
	4604	4	4.63443	27.6866	16.563	2	4	0.560991	48.0005
	4606	4	15.25	3.5	30	1	8	0.433013	48.0005
	4621	1	14.4707	17.2696	0.673862	1	0	0.433	48.0005
	4636	4	1.86185	21.8842	13.7931	4	16	0.722233	48.0005
	4638	4	22.7182	11.5558	29.1422	1	1	0.433013	48.0005
	4643	4	26.2779	28.0179	15.1118	5	21	0.782585	48.0005
	4646	4	27.35	4.27755	24.8684	6	20	0.83534	48.0005
	4649	4	0.197776	26.8854	2.88911	2	9	0.560991	48.0005
	4654	4	18.1057	23.545	9.71549	3	9	0.650764	48.0005
	4667	4	28.9188	9.59675	21.0073	3	12	0.650764	48.0005
	4678	4	9.69521	23.012	22.1162	2	2	0.560991	48.0005
	4680	4	23.5	9	23.25	1	8	0.433013	48.0005
	4681	4	25.9622	7.25009	25.4204	1	1	0.433013	48.0005
	4687	4	29.432	2.09394	6.0287	4	16	0.722233	48.0005
	4690	1	21.5883	9.3356	31.9433	1	0	0.433	48.0005
	4692	1	21.818	10.6788	15.0224	1	0	0.433	48.0005
	4708	4	6.05794	11.2441	15.9426	1	4	0.433013	48.0005
	4711	4	20.7905	11.3619	16.032	1	8	0.433013	48.0005
	4713	4	25.7342	13.5493	9.54357	1	1	0.433013	48.0005
	4714	4	13.1483	14.2643	25.199	18	53	2.17189	48.0005
	4715	4	1.05777	24.4195	29.0013	2	5	0.560991	48.0005
	4722	1	7.27512	27.0367	20.5644	1	0	0.433	48.0005
	4725	1	24.7489	9.47189	13.7869	1	0	0.433	48.0005
	4742	4	22.0611	28.9567	3.9868	1	4	0.433013	48.0005
	4744	4	8.31031	15.3822	5.87286	2	13	0.560991	48.0005
	4745	4	16.3362	22.905	15.3895	5	17	0.782585	48.0005
	4748	1	1.13139	0.880823	0.241735	1	0	0.433	48.0005
	4750	4	18.4366	28.1921	28.9888	2	8	0.560991	48.0005
	4752	1	16.0583	24.689	26.9239	1	0	0.433	48.0005
	4754	1	15.6141	3.04568	24.0968	1	0	0.433	48.0005
	4767	4	5.14811	10.0508	16.6116	1	1	0.433013	48.0005
	4771	5	23.2515	7.87321	10.5752	13	1	1.26313	48.0005
	4772	4	27.6382	9.36181	28.742	2	16	0.560991	48.0005
	4775	4	16.8557	17.6874	10.6445	7	25	1.82339	48.0005
	4777	4	2.79024	19.6258	19.2101	1	6	0.433013	48.0005
	4780	4	4.94312	0.86516	19.3384	5	18	0.782585	48.0005
	4781	5	12.6692	11.1816	4.01886	3	2	0.748379	48.0005
	4789	4	25.1689	22.4097	26.8262	1	4	0.433013	48.0005
	4790	4	26.2216	11.5963	25.9746	1	3	0.433013	48.0005
	4791	4	4.53853	26.5969	21.3521	2	4	0.560991	48.0005
	4793	1	11.0055	20.796	7.39677	1	0	0.433	48.0005
	4794	1	13.5701	19.1939	4.03222	1	0	0.433	48.0005
	4796	4	18.5795	13.7037	18.2847	1	8	0.433013	48.0005
	4799	4	30.806	7.26898	13.449	3	10	0.650764	48.0005
	4802	4	0.89098	1.13303	8.66396	9	31	1.90569	48.0005