ITEM: TIMESTEP
	0
ITEM: NUMBER OF ATOMS
	0
ITEM: BOX BOUNDS
	0	31
	0	32
	0	33
ITEM: ATOMS id type x y z size1 size2 radius time
