ITEM: TIMESTEP
	0
ITEM: NUMBER OF ATOMS
	0
ITEM: BOX BOUNDS
	0	124
	0	128
	0	132
ITEM: ATOMS id type x y z size1 size2 radius time
