ITEM: TIMESTEP
	0
ITEM: NUMBER OF ATOMS
	0
ITEM: BOX BOUNDS
	0	31
	0	32
	0	33
ITEM: ATOMS id type x y z size1 size2 radius time
ITEM: TIMESTEP
	1020984
ITEM: NUMBER OF ATOMS
	123
ITEM: BOX BOUNDS
	0	31
	0	32
	0	33
ITEM: ATOMS id type x y z size1 size2 radius time
	2312	1	12.5281	5.01689	14.8932	1	0	0.433	6.00001
	2346	1	7.99063	18.3322	21.4422	1	0	0.433	6.00001
	2368	1	12.2976	21.9867	12.8485	1	0	0.433	6.00001
	2477	1	27.6731	20.6602	31.8477	1	0	0.433	6.00001
	2490	1	19.3352	2.53966	26.2366	1	0	0.433	6.00001
	2502	1	2.93596	17.2515	10.8062	1	0	0.433	6.00001
	2527	1	25.9638	18.7127	22.9852	1	0	0.433	6.00001
	2534	1	1.79209	20.8897	14.7278	1	0	0.433	6.00001
	2556	1	14.2996	27.1264	31.2592	1	0	0.433	6.00001
	2582	1	1.21758	19.5619	18.9597	1	0	0.433	6.00001
	2584	1	9.28396	9.81162	22.8829	1	0	0.433	6.00001
	2595	1	4.57728	26.0864	32.7709	1	0	0.433	6.00001
	2681	1	2.73831	6.0544	19.6844	1	0	0.433	6.00001
	2696	1	4.96037	6.02928	10.1285	1	0	0.433	6.00001
	2700	1	18.8734	24.6503	26.8034	1	0	0.433	6.00001
	2703	1	28.9302	1.85833	30.3629	1	0	0.433	6.00001
	2717	1	28.6879	24.0496	12.1241	1	0	0.433	6.00001
	2723	1	9.94182	23.3532	20.6978	1	0	0.433	6.00001
	2765	1	9.07787	30.1667	10.6464	1	0	0.433	6.00001
	2771	1	9.64861	7.42718	19.4046	1	0	0.433	6.00001
	2780	1	17.5323	14.0588	32.9154	1	0	0.433	6.00001
	2802	1	7.43379	13.1549	5.62989	1	0	0.433	6.00001
	2807	1	4.87089	10.0594	5.67049	1	0	0.433	6.00001
	2816	1	2.17728	21.5875	7.08655	1	0	0.433	6.00001
	2847	1	2.06828	30.6289	12.3852	1	0	0.433	6.00001
	2849	1	1.15368	3.19429	26.6889	1	0	0.433	6.00001
	2850	1	9.28367	4.6724	15.305	1	0	0.433	6.00001
	2859	1	18.0593	7.03226	16.9266	1	0	0.433	6.00001
	2861	1	19.4753	21.879	20.2958	1	0	0.433	6.00001
	2865	1	23.2336	5.01997	9.88443	1	0	0.433	6.00001
	2875	4	17.6234	28.9956	30.9302	1	1	0.433013	6.00001
	2877	4	23.9064	30.0812	32.7233	1	1	0.433013	6.00001
	2883	1	2.85114	11.8365	8.60059	1	0	0.433	6.00001
	2895	1	1.75102	10.5382	17.722	1	0	0.433	6.00001
	2913	1	6.95758	21.5955	3.91298	1	0	0.433	6.00001
	2925	1	5.7763	26.2272	25.7558	1	0	0.433	6.00001
	2930	1	21.2159	24.8858	30.0496	1	0	0.433	6.00001
	2937	4	5.99064	22.5929	11.0131	1	1	0.433013	6.00001
	2947	1	2.32295	24.1423	28.8784	1	0	0.433	6.00001
	2949	1	15.0274	27.1812	28.355	1	0	0.433	6.00001
	2952	1	22.5323	9.76002	10.5767	1	0	0.433	6.00001
	2953	1	17.511	3.6792	1.59616	1	0	0.433	6.00001
	2959	1	0.704342	9.20323	9.16538	1	0	0.433	6.00001
	2965	1	12.658	26.9183	7.82031	1	0	0.433	6.00001
	2967	1	8.33173	28.5605	21.4606	1	0	0.433	6.00001
	2974	1	12.9218	13.4692	3.00179	1	0	0.433	6.00001
	2979	1	3.73712	10.8732	9.1473	1	0	0.433	6.00001
	2983	1	4.7478	27.25	6.75128	1	0	0.433	6.00001
	2985	1	26.4247	26.3406	14.6946	1	0	0.433	6.00001
	2986	1	2.1737	20.9041	20.1979	1	0	0.433	6.00001
	2992	4	13.5448	8.85135	24.3132	1	1	0.433013	6.00001
	2995	1	29.796	8.27259	8.03757	1	0	0.433	6.00001
	3000	1	3.16695	9.40399	1.1445	1	0	0.433	6.00001
	3003	1	25.9872	18.634	18.1668	1	0	0.433	6.00001
	3006	1	10.5979	25.9721	22.091	1	0	0.433	6.00001
	3008	1	17.2743	16.5448	16.8822	1	0	0.433	6.00001
	3010	1	7.48338	25.9182	14.1718	1	0	0.433	6.00001
	3015	1	12.3289	22.9719	20.3023	1	0	0.433	6.00001
	3018	1	0.320692	0.320641	20.0918	1	0	0.433	6.00001
	3019	1	3.05281	19.3658	20.7242	1	0	0.433	6.00001
	3020	1	14.8873	9.33199	15.6259	1	0	0.433	6.00001
	3022	1	15.1319	0.766223	5.69058	1	0	0.433	6.00001
	3024	1	15.2593	15.8615	3.72779	1	0	0.433	6.00001
	3027	1	15.0199	7.3046	32.9058	1	0	0.433	6.00001
	3032	1	14.4172	14.1861	24.1315	1	0	0.433	6.00001
	3033	1	22.6361	9.31954	24.3664	1	0	0.433	6.00001
	3034	1	30.5746	4.39833	15.1056	1	0	0.433	6.00001
	3038	1	25.9849	12.2818	16.9466	1	0	0.433	6.00001
	3044	1	26.4661	8.23728	7.14413	1	0	0.433	6.00001
	3045	1	29.4428	20.2285	14.9547	1	0	0.433	6.00001
	3046	1	19.2565	12.5694	20.5952	1	0	0.433	6.00001
	3048	1	13.4199	26.3196	21.4492	1	0	0.433	6.00001
	3102	4	9.26018	24.6316	20.3309	1	1	0.433013	6.00001
	3109	5	26.7546	10.3594	30.9974	6	2	0.960641	6.00001
	3127	1	22.4884	13.1284	1.49218	1	0	0.433	6.00001
	3128	1	23.2028	17.1764	10.2074	1	0	0.433	6.00001
	3130	1	1.29103	21.7936	10.363	1	0	0.433	6.00001
	3134	1	6.50733	23.978	9.49721	1	0	0.433	6.00001
	3136	1	15.0434	25.6481	6.65726	1	0	0.433	6.00001
	3137	1	19.5023	18.3925	9.15814	1	0	0.433	6.00001
	3142	1	11.8944	5.01103	27.8794	1	0	0.433	6.00001
	3143	1	13.8018	6.87169	26.3223	1	0	0.433	6.00001
	3146	1	26.3112	0.798276	30.9406	1	0	0.433	6.00001
	3148	1	30.3719	25.2775	27.1726	1	0	0.433	6.00001
	3149	1	27.1455	24.4518	26.6915	1	0	0.433	6.00001
	3151	1	3.60478	20.2981	8.54089	1	0	0.433	6.00001
	3154	1	12.4679	30.225	23.8554	1	0	0.433	6.00001
	3155	1	6.60225	3.04182	12.7266	1	0	0.433	6.00001
	3161	1	30.5847	7.9965	24.0301	1	0	0.433	6.00001
	3164	1	10.9227	23.3374	7.38943	1	0	0.433	6.00001
	3166	1	30.156	18.803	7.95192	1	0	0.433	6.00001
	3167	1	26.3981	20.0524	10.6034	1	0	0.433	6.00001
	3169	1	30.7843	16.8888	6.45435	1	0	0.433	6.00001
	3170	1	3.04471	19.6218	11.8106	1	0	0.433	6.00001
	3172	1	2.73377	29.5056	7.17401	1	0	0.433	6.00001
	3173	1	9.90782	23.3683	2.78252	1	0	0.433	6.00001
	3178	1	3.54751	2.41284	18.4876	1	0	0.433	6.00001
	3179	1	3.99566	4.66127	22.9578	1	0	0.433	6.00001
	3181	1	10.0502	31.9929	28.6007	1	0	0.433	6.00001
	3182	1	8.02996	13.5304	30.3926	1	0	0.433	6.00001
	3188	1	24.5656	14.8852	20.1419	1	0	0.433	6.00001
	3190	1	27.5731	10.3579	23.5165	1	0	0.433	6.00001
	3191	4	28.4452	4.46803	28.9081	1	1	0.433013	6.00001
	3193	1	11.6736	25.2278	5.06708	1	0	0.433	6.00001
	3194	1	10.4336	25.7605	6.61436	1	0	0.433	6.00001
	3196	1	29.3194	4.39853	26.9424	1	0	0.433	6.00001
	3199	1	26.1464	10.5273	2.50797	1	0	0.433	6.00001
	3200	1	29.0562	10.5996	28.331	1	0	0.433	6.00001
	3202	1	20.0451	31.39	22.2105	1	0	0.433	6.00001
	3203	1	23.7937	0.32165	11.1845	1	0	0.433	6.00001
	3206	1	14.1185	13.9539	10.6424	1	0	0.433	6.00001
	3208	1	9.4866	20.7709	30.4096	1	0	0.433	6.00001
	3209	1	11.4597	19.8329	0.22168	1	0	0.433	6.00001
	3211	1	22.2168	1.36692	4.33347	1	0	0.433	6.00001
	3212	1	20.6098	1.15926	32.8003	1	0	0.433	6.00001
	3214	1	18.2132	10.8617	10.9033	1	0	0.433	6.00001
	3215	1	19.5502	14.1408	9.27836	1	0	0.433	6.00001
	3217	1	20.9406	30.6418	28.1901	1	0	0.433	6.00001
	3218	1	22.4825	0.0126889	31.4445	1	0	0.433	6.00001
	3220	1	18.9136	15.3223	18.8346	1	0	0.433	6.00001
	3221	1	22.6618	15.3509	21.0989	1	0	0.433	6.00001
	3223	1	20.0186	22.5488	30.5339	1	0	0.433	6.00001
	3224	1	19.7455	18.9258	27.338	1	0	0.433	6.00001
ITEM: TIMESTEP
	1961969
ITEM: NUMBER OF ATOMS
	119
ITEM: BOX BOUNDS
	0	31
	0	32
	0	33
ITEM: ATOMS id type x y z size1 size2 radius time
	8694	4	6.25017	10.0417	4.66393	1	1	0.433013	12
	10261	1	0.0342926	17.5519	19.4032	1	0	0.433	12
	10568	1	29.2668	14.8187	6.761	1	0	0.433	12
	10900	4	13.2536	21.5718	9.94903	1	1	0.433013	12
	10991	4	26.0495	3.37447	21.5038	1	1	0.433013	12
	11014	1	30.0023	11.1965	8.70261	1	0	0.433	12
	11144	1	30.8531	22.219	4.52432	1	0	0.433	12
	11166	4	15.6587	26.8364	31.3619	1	1	0.433013	12
	11168	1	0.955238	16.4375	26.1279	1	0	0.433	12
	11267	1	28.4662	28.0555	1.87051	1	0	0.433	12
	11288	1	2.83242	0.105041	32.5505	1	0	0.433	12
	11292	1	12.4907	20.6463	27.8422	1	0	0.433	12
	11316	1	20.0674	15.9199	11.4728	1	0	0.433	12
	11321	1	2.68717	11.7538	28.2449	1	0	0.433	12
	11346	4	3.63438	10.3516	2.39189	1	1	0.433013	12
	11348	1	24.3241	22.3061	13.0383	1	0	0.433	12
	11357	1	29.8838	25.1142	1.17955	1	0	0.433	12
	11369	1	17.8695	22.2748	4.78316	1	0	0.433	12
	11393	1	18.0447	25.3712	7.2485	1	0	0.433	12
	11400	4	28.9716	4.86333	28.1227	1	1	0.433013	12
	11418	1	21.0191	8.79487	12.4782	1	0	0.433	12
	11421	1	6.6694	31.1849	23.1443	1	0	0.433	12
	11436	1	8.39414	28.3938	9.42751	1	0	0.433	12
	11439	1	12.8294	17.3089	8.15097	1	0	0.433	12
	11441	1	29.6474	13.2589	7.77605	1	0	0.433	12
	11448	1	10.7928	29.7309	18.9464	1	0	0.433	12
	11450	1	26.2214	13.2488	29.0775	1	0	0.433	12
	11451	1	21.4025	7.97553	25.5588	1	0	0.433	12
	11459	1	17.0611	21.5827	18.4062	1	0	0.433	12
	11474	1	23.1405	16.1012	32.409	1	0	0.433	12
	11482	1	1.44239	25.7501	7.85017	1	0	0.433	12
	11488	4	19.1683	22.9115	16.8305	1	1	0.433013	12
	11498	1	26.3157	21.3869	16.6024	1	0	0.433	12
	11499	1	26.4081	21.2702	4.37209	1	0	0.433	12
	11503	1	6.13594	9.24385	0.961622	1	0	0.433	12
	11505	1	8.71259	13.2637	23.7841	1	0	0.433	12
	11515	1	1.08111	16.6659	18.7551	1	0	0.433	12
	11533	4	12.5991	13.4138	1.33218	1	1	0.433013	12
	11544	1	7.19149	29.2708	30.9926	1	0	0.433	12
	11550	1	10.501	23.6344	30.7632	1	0	0.433	12
	11566	1	5.58733	13.7615	16.698	1	0	0.433	12
	11571	1	29.6639	9.49115	13.6429	1	0	0.433	12
	11581	1	0.131724	4.40214	17.7859	1	0	0.433	12
	11583	1	28.2682	14.9163	18.4594	1	0	0.433	12
	11586	1	10.5046	3.69614	2.77532	1	0	0.433	12
	11587	1	8.80186	10.7204	10.9598	1	0	0.433	12
	11592	1	21.4228	29.155	23.8181	1	0	0.433	12
	11595	1	19.5219	5.25615	19.6369	1	0	0.433	12
	11605	1	12.5038	16.6377	32.3798	1	0	0.433	12
	11606	1	13.2221	31.8301	32.6778	1	0	0.433	12
	11611	1	22.8242	24.5652	29.8092	1	0	0.433	12
	11617	1	20.2814	6.35316	25.1911	1	0	0.433	12
	11618	1	22.1974	1.28825	13.5196	1	0	0.433	12
	11626	1	9.36153	14.7347	10.5258	1	0	0.433	12
	11630	1	28.0927	9.19912	1.05401	1	0	0.433	12
	11631	5	9.53023	2.96891	32.682	3	1	0.748379	12
	11633	1	24.5494	31.4956	16.5981	1	0	0.433	12
	11634	1	7.01741	26.9377	15.414	1	0	0.433	12
	11640	1	15.8748	29.3944	14.0582	1	0	0.433	12
	11642	1	8.40107	21.474	29.0261	1	0	0.433	12
	11649	1	18.6112	29.6738	17.7771	1	0	0.433	12
	11651	1	5.69065	2.8753	29.4736	1	0	0.433	12
	11652	4	3.97367	24.0428	1.48321	1	1	0.433013	12
	11660	1	26.8569	5.56598	0.886634	1	0	0.433	12
	11663	1	2.25656	7.79217	9.63081	1	0	0.433	12
	11670	1	24.5034	11.5001	27.3924	1	0	0.433	12
	11676	1	2.23489	2.74038	21.2972	1	0	0.433	12
	11685	1	11.9401	3.59479	3.66347	1	0	0.433	12
	11689	4	17.194	28.6847	7.60671	1	1	0.433013	12
	11693	1	3.50447	11.6727	21.6653	1	0	0.433	12
	11703	1	17.2199	31.3847	3.33829	1	0	0.433	12
	11705	1	18.0355	5.49919	23.2116	1	0	0.433	12
	11706	1	8.43775	12.22	15.1119	1	0	0.433	12
	11707	4	10.3159	24.0752	20.7583	31	2	1.48735	12
	11709	1	23.589	17.9553	23.3612	1	0	0.433	12
	11713	1	19.5634	4.98914	2.61421	1	0	0.433	12
	11716	1	2.01422	3.08795	15.0646	1	0	0.433	12
	11718	1	23.8536	6.06828	28.0379	1	0	0.433	12
	11719	1	25.2733	11.1732	8.07604	1	0	0.433	12
	11723	1	26.2059	3.0639	5.87484	1	0	0.433	12
	11725	4	16.9119	9.46049	5.30489	1	1	0.433013	12
	11727	1	28.8592	2.16871	32.9261	1	0	0.433	12
	11734	1	27.0758	0.988861	6.84038	1	0	0.433	12
	11737	1	26.411	28.1302	3.13849	1	0	0.433	12
	11740	4	18.5647	12.5771	31.4481	1	1	0.433013	12
	11747	1	24.5003	15.4676	3.42637	1	0	0.433	12
	11749	1	16.5177	12.3769	18.8014	1	0	0.433	12
	11752	1	24.9491	15.9282	29.7658	1	0	0.433	12
	11753	1	20.1926	17.5356	32.0794	1	0	0.433	12
	11756	1	11.5487	25.9334	15.9174	1	0	0.433	12
	11761	1	21.0843	2.738	9.04021	1	0	0.433	12
	11762	1	19.2286	29.7979	0.302898	1	0	0.433	12
	11764	1	20.0719	1.36975	1.29976	1	0	0.433	12
	11765	1	23.5778	27.2937	6.89039	1	0	0.433	12
	11769	4	24.7798	14.9885	10.6326	24	1	1.36087	12
	11771	1	15.8547	4.78056	23.0315	1	0	0.433	12
	11774	1	2.79726	30.1838	26.847	1	0	0.433	12
	11775	1	30.345	24.7561	24.8459	1	0	0.433	12
	11780	1	13.5036	29.7966	21.5092	1	0	0.433	12
	11783	1	14.5077	9.1921	14.5892	1	0	0.433	12
	11784	1	18.0965	9.84862	11.4295	1	0	0.433	12
	11786	1	14.0932	23.9689	5.25679	1	0	0.433	12
	11787	1	11.7942	18.76	8.3442	1	0	0.433	12
	11790	1	19.6852	8.73429	16.0387	1	0	0.433	12
	11792	1	22.4012	3.12428	13.8819	1	0	0.433	12
	11793	1	18.0706	8.31293	14.5641	1	0	0.433	12
	11795	1	8.09442	2.27318	16.5308	1	0	0.433	12
	11796	1	8.57816	1.09939	12.5928	1	0	0.433	12
	11798	1	28.5775	5.56088	19.0088	1	0	0.433	12
	11799	1	27.1206	1.78639	19.591	1	0	0.433	12
	11801	1	16.8013	2.03031	23.0421	1	0	0.433	12
	11802	1	15.148	31.4159	17.9487	1	0	0.433	12
	11804	1	26.37	17.0484	2.11571	1	0	0.433	12
	11805	1	27.9922	15.1876	2.48126	1	0	0.433	12
	11807	1	30.9493	2.36768	9.46119	1	0	0.433	12
	11808	1	28.7456	2.09607	6.36039	1	0	0.433	12
	11810	1	22.6152	6.08607	17.1642	1	0	0.433	12
	11811	1	15.7229	5.19591	13.0262	1	0	0.433	12
	11814	1	25.0489	25.372	9.74	1	0	0.433	12
ITEM: TIMESTEP
	2716423
ITEM: NUMBER OF ATOMS
	66
ITEM: BOX BOUNDS
	0	31
	0	32
	0	33
ITEM: ATOMS id type x y z size1 size2 radius time
	15210	4	9.92094	31.4934	7.05203	1	1	0.433013	18
	15284	4	22.9766	13.4058	31.1367	1	1	0.433013	18
	15306	4	29.4754	4.68619	29.2195	1	1	0.433013	18
	15318	4	1.30368	11.3135	29.6514	1	1	0.433013	18
	15377	4	12.8855	21.8868	13.3523	3	2	0.650764	18
	15388	1	24.2603	31.8149	1.87778	1	0	0.433	18
	15392	1	18.1968	12.9154	22.9418	1	0	0.433	18
	15408	1	12.2275	12.0033	18.6925	1	0	0.433	18
	15423	1	26.4438	5.90174	15.3437	1	0	0.433	18
	15446	1	20.4304	12.5811	32.4849	1	0	0.433	18
	15509	4	11.0838	29.0913	10.1754	1	1	0.433013	18
	15530	4	24.9481	14.827	10.6774	47	3	1.7175	18
	15547	1	6.70424	20.5386	3.10627	1	0	0.433	18
	15568	1	15.6141	21.4767	29.4679	1	0	0.433	18
	15614	1	13.4027	11.5177	6.59635	1	0	0.433	18
	15617	1	28.0093	23.8436	20.0018	1	0	0.433	18
	15654	4	10.2599	1.62033	22.7278	1	1	0.433013	18
	15661	4	19.1885	23.1414	16.6492	5	2	0.782585	18
	15674	1	15.583	9.66111	21.2359	1	0	0.433	18
	15676	1	21.2835	5.32115	26.4681	1	0	0.433	18
	15677	1	9.96568	7.50583	32.5675	1	0	0.433	18
	15682	1	21.6136	7.70814	4.35052	1	0	0.433	18
	15685	1	26.7352	5.99291	22.0993	1	0	0.433	18
	15700	1	25.6591	0.597781	32.8522	1	0	0.433	18
	15704	4	20.2365	14.4615	19.8908	1	1	0.433013	18
	15706	1	12.6753	14.7384	25.8836	1	0	0.433	18
	15707	1	19.2072	21.3699	17.9919	1	0	0.433	18
	15715	1	3.38652	14.0579	28.1463	1	0	0.433	18
	15716	4	2.76028	11.0169	24.8096	1	1	0.433013	18
	15725	4	11.6575	20.6081	1.70422	1	1	0.433013	18
	15727	1	29.2348	30.4135	23.1032	1	0	0.433	18
	15730	1	25.494	31.5596	4.83171	1	0	0.433	18
	15731	1	14.476	4.75113	23.1252	1	0	0.433	18
	15748	1	17.6245	21.2788	8.01632	1	0	0.433	18
	15773	1	1.89253	17.9872	30.8635	1	0	0.433	18
	15774	1	10.1941	18.7314	26.1682	1	0	0.433	18
	15776	1	30.9223	31.9574	28.9072	1	0	0.433	18
	15777	1	21.0203	1.47634	7.50917	1	0	0.433	18
	15783	1	11.2231	31.8712	15.5909	1	0	0.433	18
	15796	1	27.1041	12.9161	1.34736	1	0	0.433	18
	15797	1	18.7819	4.59783	2.05508	1	0	0.433	18
	15799	1	22.7297	28.2825	1.71715	1	0	0.433	18
	15800	1	23.1634	28.689	23.8451	1	0	0.433	18
	15802	1	27.0875	25.9692	18.7195	1	0	0.433	18
	15803	1	8.21633	18.7475	16.931	1	0	0.433	18
	15804	4	14.4639	24.252	2.30502	20	2	1.27713	18
	15807	1	13.5159	19.0677	32.2428	1	0	0.433	18
	15808	4	10.2799	24.2352	20.6226	53	2	1.79011	18
	15810	1	13.3255	12.4121	28.3694	1	0	0.433	18
	15816	1	19.3487	13.0518	2.29749	1	0	0.433	18
	15819	1	8.92329	11.4947	30.5708	1	0	0.433	18
	15820	1	15.608	19.0969	6.31463	1	0	0.433	18
	15822	1	8.23069	15.6155	30.0085	1	0	0.433	18
	15823	4	12.634	13.2962	1.21197	1	1	0.433013	18
	15826	1	0.954785	25.4082	2.72473	1	0	0.433	18
	15831	1	2.92799	23.4482	15.8243	1	0	0.433	18
	15834	1	9.64722	4.5217	10.3235	1	0	0.433	18
	15835	1	10.5041	4.76556	9.22127	1	0	0.433	18
	15837	1	5.96108	28.1066	27.5482	1	0	0.433	18
	15838	1	4.26197	28.5236	30.9909	1	0	0.433	18
	15840	1	26.5902	20.8136	10.9713	1	0	0.433	18
	15841	1	26.7391	24.3087	4.79683	1	0	0.433	18
	15843	1	7.5129	19.5006	25.3831	1	0	0.433	18
	15844	4	13.0727	17.4263	27.9666	1	1	0.433013	18
	15846	1	23.6986	25.3816	11.8802	1	0	0.433	18
	15847	1	27.4029	25.2182	14.1566	1	0	0.433	18
