ITEM: TIMESTEP
	0
ITEM: NUMBER OF ATOMS
	1
ITEM: BOX BOUNDS
	0	124
	0	128
	0	132
ITEM: ATOMS id type x y z size1 size2 radius time
	1	4	54.4687	58.1687	78.1687	60	500	2.80908	0
ITEM: TIMESTEP
	801075
ITEM: NUMBER OF ATOMS
	2
ITEM: BOX BOUNDS
	0	124
	0	128
	0	132
ITEM: ATOMS id type x y z size1 size2 radius time
	2	2	85.4727	56.5938	84.6775	152	0	2.95	2.00001e-06
	3	4	54.4687	58.1687	78.1687	212	500	3.81737	2.00001e-06
ITEM: TIMESTEP
	1602606
ITEM: NUMBER OF ATOMS
	2
ITEM: BOX BOUNDS
	0	124
	0	128
	0	132
ITEM: ATOMS id type x y z size1 size2 radius time
	2	2	102.973	35.0938	59.1775	152	0	2.95	4e-06
	3	4	54.4687	58.1687	78.1687	212	500	3.81737	4e-06
ITEM: TIMESTEP
	2403266
ITEM: NUMBER OF ATOMS
	2
ITEM: BOX BOUNDS
	0	124
	0	128
	0	132
ITEM: ATOMS id type x y z size1 size2 radius time
	2	2	81.9727	76.0938	120.177	152	0	2.95	6e-06
	3	4	54.4687	58.1687	78.1687	212	500	3.81737	6e-06
ITEM: TIMESTEP
	3205003
ITEM: NUMBER OF ATOMS
	2
ITEM: BOX BOUNDS
	0	124
	0	128
	0	132
ITEM: ATOMS id type x y z size1 size2 radius time
	2	2	112.473	37.5938	73.6775	152	0	2.95	8e-06
	3	4	54.4687	58.1687	78.1687	212	500	3.81737	8e-06
ITEM: TIMESTEP
	4005901
ITEM: NUMBER OF ATOMS
	2
ITEM: BOX BOUNDS
	0	124
	0	128
	0	132
ITEM: ATOMS id type x y z size1 size2 radius time
	2	2	28.4727	5.59379	49.6775	152	0	2.95	1e-05
	3	4	54.4687	58.1687	78.1687	212	500	3.81737	1e-05
ITEM: TIMESTEP
	4806810
ITEM: NUMBER OF ATOMS
	2
ITEM: BOX BOUNDS
	0	124
	0	128
	0	132
ITEM: ATOMS id type x y z size1 size2 radius time
	2	2	39.9727	114.094	22.1775	152	0	2.95	1.2e-05
	3	4	54.4687	58.1687	78.1687	212	500	3.81737	1.2e-05
ITEM: TIMESTEP
	5607055
ITEM: NUMBER OF ATOMS
	2
ITEM: BOX BOUNDS
	0	124
	0	128
	0	132
ITEM: ATOMS id type x y z size1 size2 radius time
	2	2	111.473	50.5938	98.6775	152	0	2.95	1.4e-05
	3	4	54.4687	58.1687	78.1687	212	500	3.81737	1.4e-05
ITEM: TIMESTEP
	6407564
ITEM: NUMBER OF ATOMS
	2
ITEM: BOX BOUNDS
	0	124
	0	128
	0	132
ITEM: ATOMS id type x y z size1 size2 radius time
	2	2	7.97268	14.0938	46.1775	152	0	2.95	1.6e-05
	3	4	54.4687	58.1687	78.1687	212	500	3.81737	1.6e-05
ITEM: TIMESTEP
	7892245
ITEM: NUMBER OF ATOMS
	20
ITEM: BOX BOUNDS
	0	124
	0	128
	0	132
ITEM: ATOMS id type x y z size1 size2 radius time
	2	2	115.473	18.5938	38.6775	152	0	2.95	1.8e-05
	4	1	121.839	48.3034	88.8176	1	0	0.433	1.8e-05
	7	1	0.247216	45.3218	15.2737	1	0	0.433	1.8e-05
	8	1	29.1857	57.2347	96.9485	1	0	0.433	1.8e-05
	10	1	39.2351	12.73	87.0197	1	0	0.433	1.8e-05
	11	1	37.0326	88.0199	58.6674	1	0	0.433	1.8e-05
	12	1	101.818	0.48193	106.407	1	0	0.433	1.8e-05
	33	3	55.75	5.5	126	0	1	0.945	1.8e-05
	34	4	57.7114	92.8029	1.34367	1	1	0.433013	1.8e-05
	35	5	101.355	126.53	106.25	1	1	0.498	1.8e-05
	36	5	10.4288	38.9107	114.493	1	1	0.498	1.8e-05
	37	5	121.465	47.6408	86.7257	1	1	0.498	1.8e-05
	38	5	44.1129	15.7902	89.275	1	1	0.498	1.8e-05
	39	5	27.8416	99.1152	67.1205	1	1	0.498	1.8e-05
	40	4	94.9098	68.0715	78.0705	1	1	0.433013	1.8e-05
	41	4	102.06	71.6119	19.841	1	1	0.433013	1.8e-05
	42	5	115.126	53.4517	21.8944	1	1	0.498	1.8e-05
	43	2	46.9501	7.69276	66.9862	2	0	0.645	1.8e-05
	45	2	72.4911	57.0592	77.7997	1	0	0.498	1.8e-05
	46	4	54.476	58.1592	78.1553	212	500	3.81737	1.8e-05
ITEM: TIMESTEP
	10946765
ITEM: NUMBER OF ATOMS
	31
ITEM: BOX BOUNDS
	0	124
	0	128
	0	132
ITEM: ATOMS id type x y z size1 size2 radius time
	7	1	0.247216	45.3218	15.2737	1	0	0.433	2.01669e-05
	10	1	39.2351	12.73	87.0197	1	0	0.433	2.01669e-05
	11	1	37.0326	88.0199	58.6674	1	0	0.433	2.01669e-05
	34	4	57.7114	92.8029	1.34367	1	1	0.433013	2.01669e-05
	40	4	94.9098	68.0715	78.0705	1	1	0.433013	2.01669e-05
	41	4	102.06	71.6119	19.841	1	1	0.433013	2.01669e-05
	67	4	54.4631	58.1347	78.1288	213	501	3.82198	2.01669e-05
	71	5	46.584	126.384	98.5963	1	2	0.498	2.01669e-05
	74	5	17.492	116.693	62.5167	1	2	0.498	2.01669e-05
	89	5	40.4751	85.5992	97.7016	157	2	2.98636	2.01669e-05
	91	1	84	104.988	44.7551	1	0	0.433	2.01669e-05
	93	1	28.4306	122.262	102.47	1	0	0.433	2.01669e-05
	95	1	117.446	79.9489	117.29	1	0	0.433	2.01669e-05
	98	1	64.5064	95.1203	109.634	1	0	0.433	2.01669e-05
	99	1	67.0726	39.782	50.8758	1	0	0.433	2.01669e-05
	102	2	117.532	110.064	104.004	1	0	0.498	2.01669e-05
	104	2	34.272	9.0901	33.2726	1	0	0.498	2.01669e-05
	106	2	103.93	109.612	93.2619	1	0	0.498	2.01669e-05
	107	2	29.7811	92.6531	90.3842	1	0	0.498	2.01669e-05
	108	2	64.0247	95.4336	110.96	1	0	0.498	2.01669e-05
	109	2	66.8854	38.1392	52.5027	1	0	0.498	2.01669e-05
	110	3	38	31.25	44.5	0	1	0.945	2.01669e-05
	118	3	65.25	96	108.5	0	1	0.945	2.01669e-05
	119	3	65.5	38.25	52	0	1	0.945	2.01669e-05
	120	4	118.364	110.19	103.488	1	1	0.433013	2.01669e-05
	121	4	34.9421	8.22287	34.3862	1	1	0.433013	2.01669e-05
	122	4	102.898	108.364	91.8621	1	1	0.433013	2.01669e-05
	123	4	30.6385	91.4945	90.9348	1	1	0.433013	2.01669e-05
	124	5	83.136	106.46	44.928	1	1	0.498	2.01669e-05
	125	5	26.2568	121.56	100.893	1	1	0.498	2.01669e-05
	126	5	118.88	79.8762	116.292	1	1	0.498	2.01669e-05
ITEM: TIMESTEP
	12941206
ITEM: NUMBER OF ATOMS
	17
ITEM: BOX BOUNDS
	0	124
	0	128
	0	132
ITEM: ATOMS id type x y z size1 size2 radius time
	7	1	0.247216	45.3218	15.2737	1	0	0.433	2.2e-05
	10	1	39.2351	12.73	87.0197	1	0	0.433	2.2e-05
	40	4	94.9098	68.0715	78.0705	1	1	0.433013	2.2e-05
	41	4	102.06	71.6119	19.841	1	1	0.433013	2.2e-05
	89	5	40.4751	85.5992	97.7016	157	2	2.98636	2.2e-05
	93	1	28.4306	122.262	102.47	1	0	0.433	2.2e-05
	95	1	117.446	79.9489	117.29	1	0	0.433	2.2e-05
	99	1	67.0726	39.782	50.8758	1	0	0.433	2.2e-05
	121	4	34.9421	8.22287	34.3862	1	1	0.433013	2.2e-05
	131	5	17.437	116.793	62.4557	2	2	0.645139	2.2e-05
	132	5	46.5083	126.327	98.4183	2	2	0.645139	2.2e-05
	134	5	79.8034	32.6076	38.4877	2	1	0.645139	2.2e-05
	136	4	64.8355	95.0401	108.878	1	2	0.433013	2.2e-05
	138	4	30.3192	91.4972	90.3424	1	3	0.433013	2.2e-05
	158	4	54.4719	58.1454	78.1591	213	502	3.82198	2.2e-05
	159	4	57.9743	92.4519	1.22911	1	2	0.433013	2.2e-05
	165	5	50.0591	30.2813	128.508	1	1	0.498	2.2e-05
ITEM: TIMESTEP
	13096295
ITEM: NUMBER OF ATOMS
	15
ITEM: BOX BOUNDS
	0	124
	0	128
	0	132
ITEM: ATOMS id type x y z size1 size2 radius time
	10	1	39.2351	12.73	87.0197	1	0	0.433	2.40006e-05
	40	4	94.9098	68.0715	78.0705	1	1	0.433013	2.40006e-05
	41	4	102.06	71.6119	19.841	1	1	0.433013	2.40006e-05
	89	5	40.4751	85.5992	97.7016	157	2	2.98636	2.40006e-05
	93	1	28.4306	122.262	102.47	1	0	0.433	2.40006e-05
	95	1	117.446	79.9489	117.29	1	0	0.433	2.40006e-05
	99	1	67.0726	39.782	50.8758	1	0	0.433	2.40006e-05
	121	4	34.9421	8.22287	34.3862	1	1	0.433013	2.40006e-05
	131	5	17.437	116.793	62.4557	2	2	0.645139	2.40006e-05
	134	5	73.8034	26.6076	44.4877	2	1	0.645139	2.40006e-05
	136	4	64.8355	95.0401	108.878	1	2	0.433013	2.40006e-05
	138	4	30.3192	91.4972	90.3424	1	3	0.433013	2.40006e-05
	158	4	54.4719	58.1454	78.1591	213	502	3.82198	2.40006e-05
	159	4	57.9743	92.4519	1.22911	1	2	0.433013	2.40006e-05
	168	5	46.6066	126.111	98.2346	2	3	0.645139	2.40006e-05
ITEM: TIMESTEP
	13097120
ITEM: NUMBER OF ATOMS
	15
ITEM: BOX BOUNDS
	0	124
	0	128
	0	132
ITEM: ATOMS id type x y z size1 size2 radius time
	10	1	39.2351	12.73	87.0197	1	0	0.433	2.6002e-05
	40	4	94.9098	68.0715	78.0705	1	1	0.433013	2.6002e-05
	41	4	102.06	71.6119	19.841	1	1	0.433013	2.6002e-05
	89	5	40.4751	85.5992	97.7016	157	2	2.98636	2.6002e-05
	93	1	28.4306	122.262	102.47	1	0	0.433	2.6002e-05
	95	1	117.446	79.9489	117.29	1	0	0.433	2.6002e-05
	99	1	67.0726	39.782	50.8758	1	0	0.433	2.6002e-05
	121	4	34.9421	8.22287	34.3862	1	1	0.433013	2.6002e-05
	131	5	17.437	116.793	62.4557	2	2	0.645139	2.6002e-05
	134	5	82.3034	35.1076	35.9877	2	1	0.645139	2.6002e-05
	136	4	64.8355	95.0401	108.878	1	2	0.433013	2.6002e-05
	138	4	30.3192	91.4972	90.3424	1	3	0.433013	2.6002e-05
	158	4	54.4719	58.1454	78.1591	213	502	3.82198	2.6002e-05
	159	4	57.9743	92.4519	1.22911	1	2	0.433013	2.6002e-05
	168	5	46.6066	126.111	98.2346	2	3	0.645139	2.6002e-05
ITEM: TIMESTEP
	16068904
ITEM: NUMBER OF ATOMS
	40
ITEM: BOX BOUNDS
	0	124
	0	128
	0	132
ITEM: ATOMS id type x y z size1 size2 radius time
	40	4	94.9098	68.0715	78.0705	1	1	0.433013	3.83187e-05
	41	4	102.06	71.6119	19.841	1	1	0.433013	3.83187e-05
	93	1	28.4306	122.262	102.47	1	0	0.433	3.83187e-05
	95	1	117.446	79.9489	117.29	1	0	0.433	3.83187e-05
	99	1	67.0726	39.782	50.8758	1	0	0.433	3.83187e-05
	121	4	34.9421	8.22287	34.3862	1	1	0.433013	3.83187e-05
	138	4	30.3192	91.4972	90.3424	1	3	0.433013	3.83187e-05
	159	4	57.9743	92.4519	1.22911	1	2	0.433013	3.83187e-05
	168	5	46.6066	126.111	98.2346	2	3	0.645139	3.83187e-05
	204	4	21.962	1.69092	42.4544	1	1	0.433013	3.83187e-05
	207	5	72.6025	25.0807	46.1783	2	2	0.645139	3.83187e-05
	208	4	64.6891	95.2801	109.033	1	3	0.433013	3.83187e-05
	221	4	65.2206	16.4301	86.6506	1	2	0.433013	3.83187e-05
	222	4	38.8676	13.24	87.0098	1	1	0.433013	3.83187e-05
	229	5	17.4004	116.729	62.7707	3	3	0.748379	3.83187e-05
	233	4	54.4641	58.1213	78.1313	214	504	3.82657	3.83187e-05
	240	5	40.5019	85.6005	97.7155	160	2	3.0057	3.83187e-05
	241	4	66.7316	32.8631	107.881	1	1	0.433013	3.83187e-05
	243	1	3.65109	79.2503	130.95	1	0	0.433	3.83187e-05
	244	1	58.331	57.5384	54.3481	1	0	0.433	3.83187e-05
	245	1	106.995	14.646	29.8593	1	0	0.433	3.83187e-05
	246	1	11.4084	83.3379	87.3197	1	0	0.433	3.83187e-05
	247	1	19.0719	100.002	123.513	1	0	0.433	3.83187e-05
	250	1	105.832	44.6544	37.5007	1	0	0.433	3.83187e-05
	254	2	56.5123	58.0363	54.8081	1	0	0.498	3.83187e-05
	255	2	109.157	14.0486	29.8293	1	0	0.498	3.83187e-05
	256	2	11.8385	84.8489	86.7682	1	0	0.498	3.83187e-05
	258	2	54.4499	49.1936	97.0875	1	0	0.498	3.83187e-05
	259	2	2.47015	59.915	60.2926	1	0	0.498	3.83187e-05
	261	2	31.38	81.5329	126.404	1	0	0.498	3.83187e-05
	262	3	81	124.75	50.5	0	1	0.945	3.83187e-05
	264	3	56.75	56	54.5	0	1	0.945	3.83187e-05
	265	3	108	14.75	28.5	0	1	0.945	3.83187e-05
	266	3	11	82.5	85.75	0	1	0.945	3.83187e-05
	272	4	54.9331	47.6583	96.204	1	1	0.433013	3.83187e-05
	273	4	1.92772	58.328	60.6622	1	1	0.433013	3.83187e-05
	274	4	33.4184	82.3747	124.821	1	1	0.433013	3.83187e-05
	275	5	2.41747	80.5428	131.353	1	1	0.498	3.83187e-05
	276	5	18.9557	100.496	125.524	1	1	0.498	3.83187e-05
	277	5	104.99	43.0898	37.6468	1	1	0.498	3.83187e-05
ITEM: TIMESTEP
	16068905
ITEM: NUMBER OF ATOMS
	40
ITEM: BOX BOUNDS
	0	124
	0	128
	0	132
ITEM: ATOMS id type x y z size1 size2 radius time
	40	4	94.9098	68.0715	78.0705	1	1	0.433013	3.83187e-05
	41	4	102.06	71.6119	19.841	1	1	0.433013	3.83187e-05
	93	1	28.4306	122.262	102.47	1	0	0.433	3.83187e-05
	95	1	117.446	79.9489	117.29	1	0	0.433	3.83187e-05
	99	1	67.0726	39.782	50.8758	1	0	0.433	3.83187e-05
	121	4	34.9421	8.22287	34.3862	1	1	0.433013	3.83187e-05
	138	4	30.3192	91.4972	90.3424	1	3	0.433013	3.83187e-05
	159	4	57.9743	92.4519	1.22911	1	2	0.433013	3.83187e-05
	168	5	46.6066	126.111	98.2346	2	3	0.645139	3.83187e-05
	204	4	21.962	1.69092	42.4544	1	1	0.433013	3.83187e-05
	207	5	72.6025	25.0807	46.1783	2	2	0.645139	3.83187e-05
	208	4	64.6891	95.2801	109.033	1	3	0.433013	3.83187e-05
	221	4	65.2206	16.4301	86.6506	1	2	0.433013	3.83187e-05
	222	4	38.8676	13.24	87.0098	1	1	0.433013	3.83187e-05
	229	5	17.4004	116.729	62.7707	3	3	0.748379	3.83187e-05
	233	4	54.4641	58.1213	78.1313	214	504	3.82657	3.83187e-05
	240	5	40.5019	85.6005	97.7155	160	2	3.0057	3.83187e-05
	241	4	66.7316	32.8631	107.881	1	1	0.433013	3.83187e-05
	243	1	3.65109	79.2503	130.95	1	0	0.433	3.83187e-05
	244	1	58.331	57.5384	54.3481	1	0	0.433	3.83187e-05
	245	1	106.995	14.646	29.8593	1	0	0.433	3.83187e-05
	246	1	11.4084	83.3379	87.3197	1	0	0.433	3.83187e-05
	247	1	19.0719	100.002	123.513	1	0	0.433	3.83187e-05
	250	1	105.832	44.6544	37.5007	1	0	0.433	3.83187e-05
	254	2	56.5123	58.0363	54.8081	1	0	0.498	3.83187e-05
	255	2	109.157	14.0486	29.8293	1	0	0.498	3.83187e-05
	256	2	11.8385	84.8489	86.7682	1	0	0.498	3.83187e-05
	258	2	54.4499	49.1936	97.0875	1	0	0.498	3.83187e-05
	259	2	2.97015	60.415	59.7926	1	0	0.498	3.83187e-05
	261	2	31.38	81.5329	126.404	1	0	0.498	3.83187e-05
	262	3	81	124.75	50.5	0	1	0.945	3.83187e-05
	264	3	56.75	56	54.5	0	1	0.945	3.83187e-05
	265	3	108	14.75	28.5	0	1	0.945	3.83187e-05
	266	3	11	82.5	85.75	0	1	0.945	3.83187e-05
	272	4	54.9331	47.6583	96.204	1	1	0.433013	3.83187e-05
	273	4	1.92772	58.328	60.6622	1	1	0.433013	3.83187e-05
	274	4	33.4184	82.3747	124.821	1	1	0.433013	3.83187e-05
	275	5	2.41747	80.5428	131.353	1	1	0.498	3.83187e-05
	276	5	18.9557	100.496	125.524	1	1	0.498	3.83187e-05
	277	5	104.99	43.0898	37.6468	1	1	0.498	3.83187e-05
ITEM: TIMESTEP
	16068906
ITEM: NUMBER OF ATOMS
	40
ITEM: BOX BOUNDS
	0	124
	0	128
	0	132
ITEM: ATOMS id type x y z size1 size2 radius time
	40	4	94.9098	68.0715	78.0705	1	1	0.433013	3.83187e-05
	41	4	102.06	71.6119	19.841	1	1	0.433013	3.83187e-05
	93	1	28.4306	122.262	102.47	1	0	0.433	3.83187e-05
	95	1	117.446	79.9489	117.29	1	0	0.433	3.83187e-05
	99	1	67.0726	39.782	50.8758	1	0	0.433	3.83187e-05
	121	4	34.9421	8.22287	34.3862	1	1	0.433013	3.83187e-05
	138	4	30.3192	91.4972	90.3424	1	3	0.433013	3.83187e-05
	159	4	57.9743	92.4519	1.22911	1	2	0.433013	3.83187e-05
	168	5	46.6066	126.111	98.2346	2	3	0.645139	3.83187e-05
	204	4	21.962	1.69092	42.4544	1	1	0.433013	3.83187e-05
	207	5	72.6025	25.0807	46.1783	2	2	0.645139	3.83187e-05
	208	4	64.6891	95.2801	109.033	1	3	0.433013	3.83187e-05
	221	4	65.2206	16.4301	86.6506	1	2	0.433013	3.83187e-05
	222	4	38.8676	13.24	87.0098	1	1	0.433013	3.83187e-05
	229	5	17.4004	116.729	62.7707	3	3	0.748379	3.83187e-05
	233	4	54.4641	58.1213	78.1313	214	504	3.82657	3.83187e-05
	240	5	40.5019	85.6005	97.7155	160	2	3.0057	3.83187e-05
	241	4	66.7316	32.8631	107.881	1	1	0.433013	3.83187e-05
	243	1	3.65109	79.2503	130.95	1	0	0.433	3.83187e-05
	244	1	58.331	57.5384	54.3481	1	0	0.433	3.83187e-05
	245	1	106.995	14.646	29.8593	1	0	0.433	3.83187e-05
	246	1	11.4084	83.3379	87.3197	1	0	0.433	3.83187e-05
	247	1	19.0719	100.002	123.513	1	0	0.433	3.83187e-05
	250	1	105.832	44.6544	37.5007	1	0	0.433	3.83187e-05
	254	2	56.5123	58.0363	54.8081	1	0	0.498	3.83187e-05
	255	2	109.157	14.0486	29.8293	1	0	0.498	3.83187e-05
	256	2	11.8385	84.8489	86.7682	1	0	0.498	3.83187e-05
	258	2	54.4499	49.1936	97.0875	1	0	0.498	3.83187e-05
	259	2	2.97015	60.415	59.7926	1	0	0.498	3.83187e-05
	261	2	30.88	81.0329	125.904	1	0	0.498	3.83187e-05
	262	3	81	124.75	50.5	0	1	0.945	3.83187e-05
	264	3	56.75	56	54.5	0	1	0.945	3.83187e-05
	265	3	108	14.75	28.5	0	1	0.945	3.83187e-05
	266	3	11	82.5	85.75	0	1	0.945	3.83187e-05
	272	4	54.9331	47.6583	96.204	1	1	0.433013	3.83187e-05
	273	4	1.92772	58.328	60.6622	1	1	0.433013	3.83187e-05
	274	4	33.4184	82.3747	124.821	1	1	0.433013	3.83187e-05
	275	5	2.41747	80.5428	131.353	1	1	0.498	3.83187e-05
	276	5	18.9557	100.496	125.524	1	1	0.498	3.83187e-05
	277	5	104.99	43.0898	37.6468	1	1	0.498	3.83187e-05
ITEM: TIMESTEP
	16068907
ITEM: NUMBER OF ATOMS
	40
ITEM: BOX BOUNDS
	0	124
	0	128
	0	132
ITEM: ATOMS id type x y z size1 size2 radius time
	40	4	94.9098	68.0715	78.0705	1	1	0.433013	3.83187e-05
	41	4	102.06	71.6119	19.841	1	1	0.433013	3.83187e-05
	93	1	28.4306	122.262	102.47	1	0	0.433	3.83187e-05
	95	1	117.446	79.9489	117.29	1	0	0.433	3.83187e-05
	99	1	67.0726	39.782	50.8758	1	0	0.433	3.83187e-05
	121	4	34.9421	8.22287	34.3862	1	1	0.433013	3.83187e-05
	138	4	30.3192	91.4972	90.3424	1	3	0.433013	3.83187e-05
	159	4	57.9743	92.4519	1.22911	1	2	0.433013	3.83187e-05
	168	5	46.6066	126.111	98.2346	2	3	0.645139	3.83187e-05
	204	4	21.962	1.69092	42.4544	1	1	0.433013	3.83187e-05
	207	5	72.6025	25.0807	46.1783	2	2	0.645139	3.83187e-05
	208	4	64.6891	95.2801	109.033	1	3	0.433013	3.83187e-05
	221	4	65.2206	16.4301	86.6506	1	2	0.433013	3.83187e-05
	222	4	38.8676	13.24	87.0098	1	1	0.433013	3.83187e-05
	229	5	17.4004	116.729	62.7707	3	3	0.748379	3.83187e-05
	233	4	54.4641	58.1213	78.1313	214	504	3.82657	3.83187e-05
	240	5	40.5019	85.6005	97.7155	160	2	3.0057	3.83187e-05
	241	4	66.7316	32.8631	107.881	1	1	0.433013	3.83187e-05
	243	1	3.65109	79.2503	130.95	1	0	0.433	3.83187e-05
	244	1	58.331	57.5384	54.3481	1	0	0.433	3.83187e-05
	245	1	106.995	14.646	29.8593	1	0	0.433	3.83187e-05
	246	1	11.4084	83.3379	87.3197	1	0	0.433	3.83187e-05
	247	1	19.0719	100.002	123.513	1	0	0.433	3.83187e-05
	250	1	105.832	44.6544	37.5007	1	0	0.433	3.83187e-05
	254	2	56.5123	58.0363	54.8081	1	0	0.498	3.83187e-05
	255	2	109.157	14.0486	29.8293	1	0	0.498	3.83187e-05
	256	2	11.8385	84.8489	86.7682	1	0	0.498	3.83187e-05
	258	2	54.4499	49.1936	97.0875	1	0	0.498	3.83187e-05
	259	2	2.97015	60.415	59.7926	1	0	0.498	3.83187e-05
	261	2	30.88	81.0329	125.904	1	0	0.498	3.83187e-05
	262	3	81	124.75	50.5	0	1	0.945	3.83187e-05
	264	3	56.75	56	54.5	0	1	0.945	3.83187e-05
	265	3	108	14.5	28.75	0	1	0.945	3.83187e-05
	266	3	11	82.5	85.75	0	1	0.945	3.83187e-05
	272	4	54.9331	47.6583	96.204	1	1	0.433013	3.83187e-05
	273	4	1.92772	58.328	60.6622	1	1	0.433013	3.83187e-05
	274	4	33.4184	82.3747	124.821	1	1	0.433013	3.83187e-05
	275	5	2.41747	80.5428	131.353	1	1	0.498	3.83187e-05
	276	5	18.9557	100.496	125.524	1	1	0.498	3.83187e-05
	277	5	104.99	43.0898	37.6468	1	1	0.498	3.83187e-05
ITEM: TIMESTEP
	16068908
ITEM: NUMBER OF ATOMS
	40
ITEM: BOX BOUNDS
	0	124
	0	128
	0	132
ITEM: ATOMS id type x y z size1 size2 radius time
	40	4	94.9098	68.0715	78.0705	1	1	0.433013	3.83187e-05
	41	4	102.06	71.6119	19.841	1	1	0.433013	3.83187e-05
	93	1	28.4306	122.262	102.47	1	0	0.433	3.83187e-05
	95	1	117.446	79.9489	117.29	1	0	0.433	3.83187e-05
	99	1	67.0726	39.782	50.8758	1	0	0.433	3.83187e-05
	121	4	34.9421	8.22287	34.3862	1	1	0.433013	3.83187e-05
	138	4	30.3192	91.4972	90.3424	1	3	0.433013	3.83187e-05
	159	4	57.9743	92.4519	1.22911	1	2	0.433013	3.83187e-05
	168	5	46.6066	126.111	98.2346	2	3	0.645139	3.83187e-05
	204	4	21.962	1.69092	42.4544	1	1	0.433013	3.83187e-05
	207	5	72.6025	25.0807	46.1783	2	2	0.645139	3.83187e-05
	208	4	64.6891	95.2801	109.033	1	3	0.433013	3.83187e-05
	221	4	65.2206	16.4301	86.6506	1	2	0.433013	3.83187e-05
	222	4	38.8676	13.24	87.0098	1	1	0.433013	3.83187e-05
	229	5	17.4004	116.729	62.7707	3	3	0.748379	3.83187e-05
	233	4	54.4641	58.1213	78.1313	214	504	3.82657	3.83187e-05
	240	5	40.5019	85.6005	97.7155	160	2	3.0057	3.83187e-05
	241	4	66.7316	32.8631	107.881	1	1	0.433013	3.83187e-05
	243	1	3.65109	79.2503	130.95	1	0	0.433	3.83187e-05
	244	1	58.331	57.5384	54.3481	1	0	0.433	3.83187e-05
	245	1	106.995	14.646	29.8593	1	0	0.433	3.83187e-05
	246	1	11.4084	83.3379	87.3197	1	0	0.433	3.83187e-05
	247	1	19.0719	100.002	123.513	1	0	0.433	3.83187e-05
	250	1	105.832	44.6544	37.5007	1	0	0.433	3.83187e-05
	254	2	56.5123	58.0363	54.8081	1	0	0.498	3.83187e-05
	255	2	109.157	14.0486	29.8293	1	0	0.498	3.83187e-05
	256	2	11.8385	84.8489	86.7682	1	0	0.498	3.83187e-05
	258	2	54.4499	49.1936	97.0875	1	0	0.498	3.83187e-05
	259	2	2.97015	60.415	59.7926	1	0	0.498	3.83187e-05
	261	2	30.88	81.0329	125.904	1	0	0.498	3.83187e-05
	262	3	81	124.75	50.5	0	1	0.945	3.83187e-05
	264	3	56.75	56	54.5	0	1	0.945	3.83187e-05
	265	3	108	14.5	28.75	0	1	0.945	3.83187e-05
	266	3	11	82.25	85.5	0	1	0.945	3.83187e-05
	272	4	54.9331	47.6583	96.204	1	1	0.433013	3.83187e-05
	273	4	1.92772	58.328	60.6622	1	1	0.433013	3.83187e-05
	274	4	33.4184	82.3747	124.821	1	1	0.433013	3.83187e-05
	275	5	2.41747	80.5428	131.353	1	1	0.498	3.83187e-05
	276	5	18.9557	100.496	125.524	1	1	0.498	3.83187e-05
	277	5	104.99	43.0898	37.6468	1	1	0.498	3.83187e-05
ITEM: TIMESTEP
	16068909
ITEM: NUMBER OF ATOMS
	40
ITEM: BOX BOUNDS
	0	124
	0	128
	0	132
ITEM: ATOMS id type x y z size1 size2 radius time
	40	4	94.9098	68.0715	78.0705	1	1	0.433013	3.83187e-05
	41	4	102.06	71.6119	19.841	1	1	0.433013	3.83187e-05
	93	1	28.4306	122.262	102.47	1	0	0.433	3.83187e-05
	95	1	117.446	79.9489	117.29	1	0	0.433	3.83187e-05
	99	1	67.0726	39.782	50.8758	1	0	0.433	3.83187e-05
	121	4	34.9421	8.22287	34.3862	1	1	0.433013	3.83187e-05
	138	4	30.3192	91.4972	90.3424	1	3	0.433013	3.83187e-05
	159	4	57.9743	92.4519	1.22911	1	2	0.433013	3.83187e-05
	168	5	46.6066	126.111	98.2346	2	3	0.645139	3.83187e-05
	204	4	21.962	1.69092	42.4544	1	1	0.433013	3.83187e-05
	207	5	72.6025	25.0807	46.1783	2	2	0.645139	3.83187e-05
	208	4	64.6891	95.2801	109.033	1	3	0.433013	3.83187e-05
	221	4	65.2206	16.4301	86.6506	1	2	0.433013	3.83187e-05
	222	4	38.8676	13.24	87.0098	1	1	0.433013	3.83187e-05
	229	5	17.4004	116.729	62.7707	3	3	0.748379	3.83187e-05
	233	4	54.4641	58.1213	78.1313	214	504	3.82657	3.83187e-05
	240	5	40.5019	85.6005	97.7155	160	2	3.0057	3.83187e-05
	241	4	66.7316	32.8631	107.881	1	1	0.433013	3.83187e-05
	243	1	3.65109	79.2503	130.95	1	0	0.433	3.83187e-05
	244	1	58.331	57.5384	54.3481	1	0	0.433	3.83187e-05
	245	1	106.995	14.646	29.8593	1	0	0.433	3.83187e-05
	246	1	11.4084	83.3379	87.3197	1	0	0.433	3.83187e-05
	247	1	19.0719	100.002	123.513	1	0	0.433	3.83187e-05
	250	1	105.832	44.6544	37.5007	1	0	0.433	3.83187e-05
	254	2	56.5123	58.0363	54.8081	1	0	0.498	3.83187e-05
	255	2	109.157	14.0486	29.8293	1	0	0.498	3.83187e-05
	256	2	12.3385	85.3489	86.2682	1	0	0.498	3.83187e-05
	258	2	54.4499	49.1936	97.0875	1	0	0.498	3.83187e-05
	259	2	2.97015	60.415	59.7926	1	0	0.498	3.83187e-05
	261	2	30.88	81.0329	125.904	1	0	0.498	3.83187e-05
	262	3	81	124.75	50.5	0	1	0.945	3.83187e-05
	264	3	56.75	56	54.5	0	1	0.945	3.83187e-05
	265	3	108	14.5	28.75	0	1	0.945	3.83187e-05
	266	3	11	82.25	85.5	0	1	0.945	3.83187e-05
	272	4	54.9331	47.6583	96.204	1	1	0.433013	3.83187e-05
	273	4	1.92772	58.328	60.6622	1	1	0.433013	3.83187e-05
	274	4	33.4184	82.3747	124.821	1	1	0.433013	3.83187e-05
	275	5	2.41747	80.5428	131.353	1	1	0.498	3.83187e-05
	276	5	18.9557	100.496	125.524	1	1	0.498	3.83187e-05
	277	5	104.99	43.0898	37.6468	1	1	0.498	3.83187e-05
ITEM: TIMESTEP
	18681114
ITEM: NUMBER OF ATOMS
	47
ITEM: BOX BOUNDS
	0	124
	0	128
	0	132
ITEM: ATOMS id type x y z size1 size2 radius time
	40	4	94.9098	68.0715	78.0705	1	1	0.433013	4.39941e-05
	95	1	117.446	79.9489	117.29	1	0	0.433	4.39941e-05
	99	1	67.0726	39.782	50.8758	1	0	0.433	4.39941e-05
	121	4	34.9421	8.22287	34.3862	1	1	0.433013	4.39941e-05
	138	4	30.3192	91.4972	90.3424	1	3	0.433013	4.39941e-05
	159	4	57.9743	92.4519	1.22911	1	2	0.433013	4.39941e-05
	168	5	46.6066	126.111	98.2346	2	3	0.645139	4.39941e-05
	204	4	21.962	1.69092	42.4544	1	1	0.433013	4.39941e-05
	207	5	72.6025	25.0807	46.1783	2	2	0.645139	4.39941e-05
	208	4	64.6891	95.2801	109.033	1	3	0.433013	4.39941e-05
	222	4	38.8676	13.24	87.0098	1	1	0.433013	4.39941e-05
	241	4	66.7316	32.8631	107.881	1	1	0.433013	4.39941e-05
	243	1	3.65109	79.2503	130.95	1	0	0.433	4.39941e-05
	244	1	58.331	57.5384	54.3481	1	0	0.433	4.39941e-05
	250	1	105.832	44.6544	37.5007	1	0	0.433	4.39941e-05
	272	4	54.9331	47.6583	96.204	1	1	0.433013	4.39941e-05
	273	4	1.92772	58.328	60.6622	1	1	0.433013	4.39941e-05
	280	4	11.2042	83.919	87.2848	1	1	0.433013	4.39941e-05
	309	5	17.2454	116.747	62.8231	4	3	0.376306	4.39941e-05
	316	4	54.4748	58.1236	78.1344	214	504	3.82657	4.39941e-05
	317	4	28.0903	122.131	101.985	1	1	0.433013	4.39941e-05
	336	4	64.9154	16.3851	86.613	1	3	0.433013	4.39941e-05
	340	5	43.8129	115.495	121.873	1	2	0.498	4.39941e-05
	344	4	107.247	14.948	29.4297	1	1	0.433013	4.39941e-05
	351	5	40.525	85.5994	97.7092	165	3	3.03739	4.39941e-05
	352	4	102.29	71.2413	19.894	1	2	0.433013	4.39941e-05
	354	1	62.4174	20.4647	12.3061	1	0	0.433	4.39941e-05
	355	1	70.6688	30.8157	53.9159	1	0	0.433	4.39941e-05
	357	1	67.4434	116.41	42.7651	1	0	0.433	4.39941e-05
	358	1	73.7699	27.8358	35.5553	1	0	0.433	4.39941e-05
	365	2	71.9289	30.6249	52.4519	1	0	0.498	4.39941e-05
	366	2	11.2678	16.0009	90.3561	1	0	0.498	4.39941e-05
	367	2	68.6081	116.652	43.9299	1	0	0.498	4.39941e-05
	369	2	76.1016	79.2369	95.0237	1	0	0.498	4.39941e-05
	370	2	38.8616	64.8014	104.088	1	0	0.498	4.39941e-05
	371	2	23.8484	75.9242	7.07082	1	0	0.498	4.39941e-05
	372	2	111.773	105.659	73.4139	1	0	0.498	4.39941e-05
	373	3	118	60.25	97.5	0	1	0.945	4.39941e-05
	375	3	70	29.5	51.75	0	1	0.945	4.39941e-05
	377	3	67	114.5	43.25	0	1	0.945	4.39941e-05
	383	4	12.6666	15.0456	89.445	1	1	0.433013	4.39941e-05
	384	4	74.6313	78.2002	95.3414	1	1	0.433013	4.39941e-05
	385	4	37.6772	64.3348	102.917	1	1	0.433013	4.39941e-05
	386	4	24.9789	76.0052	8.36159	1	1	0.433013	4.39941e-05
	387	4	111.558	105.619	76.0455	1	1	0.433013	4.39941e-05
	388	5	64.0776	20.6988	11.4309	1	1	0.498	4.39941e-05
	389	5	73.9793	29.5639	34.5528	1	1	0.498	4.39941e-05
ITEM: TIMESTEP
	18681115
ITEM: NUMBER OF ATOMS
	47
ITEM: BOX BOUNDS
	0	124
	0	128
	0	132
ITEM: ATOMS id type x y z size1 size2 radius time
	40	4	94.9098	68.0715	78.0705	1	1	0.433013	4.39941e-05
	95	1	117.446	79.9489	117.29	1	0	0.433	4.39941e-05
	99	1	67.0726	39.782	50.8758	1	0	0.433	4.39941e-05
	121	4	34.9421	8.22287	34.3862	1	1	0.433013	4.39941e-05
	138	4	30.3192	91.4972	90.3424	1	3	0.433013	4.39941e-05
	159	4	57.9743	92.4519	1.22911	1	2	0.433013	4.39941e-05
	168	5	46.6066	126.111	98.2346	2	3	0.645139	4.39941e-05
	204	4	21.962	1.69092	42.4544	1	1	0.433013	4.39941e-05
	207	5	72.6025	25.0807	46.1783	2	2	0.645139	4.39941e-05
	208	4	64.6891	95.2801	109.033	1	3	0.433013	4.39941e-05
	222	4	38.8676	13.24	87.0098	1	1	0.433013	4.39941e-05
	241	4	66.7316	32.8631	107.881	1	1	0.433013	4.39941e-05
	243	1	3.65109	79.2503	130.95	1	0	0.433	4.39941e-05
	244	1	58.331	57.5384	54.3481	1	0	0.433	4.39941e-05
	250	1	105.832	44.6544	37.5007	1	0	0.433	4.39941e-05
	272	4	54.9331	47.6583	96.204	1	1	0.433013	4.39941e-05
	273	4	1.92772	58.328	60.6622	1	1	0.433013	4.39941e-05
	280	4	11.2042	83.919	87.2848	1	1	0.433013	4.39941e-05
	309	5	17.2454	116.747	62.8231	4	3	0.376306	4.39941e-05
	316	4	54.4748	58.1236	78.1344	214	504	3.82657	4.39941e-05
	317	4	28.0903	122.131	101.985	1	1	0.433013	4.39941e-05
	336	4	64.9154	16.3851	86.613	1	3	0.433013	4.39941e-05
	340	5	43.8129	115.495	121.873	1	2	0.498	4.39941e-05
	344	4	107.247	14.948	29.4297	1	1	0.433013	4.39941e-05
	351	5	40.525	85.5994	97.7092	165	3	3.03739	4.39941e-05
	352	4	102.29	71.2413	19.894	1	2	0.433013	4.39941e-05
	354	1	62.4174	20.4647	12.3061	1	0	0.433	4.39941e-05
	355	1	70.6688	30.8157	53.9159	1	0	0.433	4.39941e-05
	357	1	67.4434	116.41	42.7651	1	0	0.433	4.39941e-05
	358	1	73.7699	27.8358	35.5553	1	0	0.433	4.39941e-05
	365	2	71.4289	30.1249	51.9519	1	0	0.498	4.39941e-05
	366	2	11.2678	16.0009	90.3561	1	0	0.498	4.39941e-05
	367	2	68.6081	116.652	43.9299	1	0	0.498	4.39941e-05
	369	2	76.1016	79.2369	95.0237	1	0	0.498	4.39941e-05
	370	2	38.8616	64.8014	104.088	1	0	0.498	4.39941e-05
	371	2	23.8484	75.9242	7.07082	1	0	0.498	4.39941e-05
	372	2	111.773	105.659	73.4139	1	0	0.498	4.39941e-05
	373	3	118	60.25	97.5	0	1	0.945	4.39941e-05
	375	3	70	29.5	51.75	0	1	0.945	4.39941e-05
	377	3	67	114.5	43.25	0	1	0.945	4.39941e-05
	383	4	12.6666	15.0456	89.445	1	1	0.433013	4.39941e-05
	384	4	74.6313	78.2002	95.3414	1	1	0.433013	4.39941e-05
	385	4	37.6772	64.3348	102.917	1	1	0.433013	4.39941e-05
	386	4	24.9789	76.0052	8.36159	1	1	0.433013	4.39941e-05
	387	4	111.558	105.619	76.0455	1	1	0.433013	4.39941e-05
	388	5	64.0776	20.6988	11.4309	1	1	0.498	4.39941e-05
	389	5	73.9793	29.5639	34.5528	1	1	0.498	4.39941e-05
ITEM: TIMESTEP
	18877023
ITEM: NUMBER OF ATOMS
	45
ITEM: BOX BOUNDS
	0	124
	0	128
	0	132
ITEM: ATOMS id type x y z size1 size2 radius time
	40	4	94.9098	68.0715	78.0705	1	1	0.433013	4.4e-05
	95	1	117.446	79.9489	117.29	1	0	0.433	4.4e-05
	99	1	67.0726	39.782	50.8758	1	0	0.433	4.4e-05
	121	4	34.9421	8.22287	34.3862	1	1	0.433013	4.4e-05
	138	4	30.3192	91.4972	90.3424	1	3	0.433013	4.4e-05
	159	4	57.9743	92.4519	1.22911	1	2	0.433013	4.4e-05
	168	5	46.6066	126.111	98.2346	2	3	0.645139	4.4e-05
	204	4	21.962	1.69092	42.4544	1	1	0.433013	4.4e-05
	208	4	64.6891	95.2801	109.033	1	3	0.433013	4.4e-05
	222	4	38.8676	13.24	87.0098	1	1	0.433013	4.4e-05
	241	4	66.7316	32.8631	107.881	1	1	0.433013	4.4e-05
	243	1	3.65109	79.2503	130.95	1	0	0.433	4.4e-05
	244	1	58.331	57.5384	54.3481	1	0	0.433	4.4e-05
	250	1	105.832	44.6544	37.5007	1	0	0.433	4.4e-05
	272	4	54.9331	47.6583	96.204	1	1	0.433013	4.4e-05
	273	4	1.92772	58.328	60.6622	1	1	0.433013	4.4e-05
	280	4	11.2042	83.919	87.2848	1	1	0.433013	4.4e-05
	309	5	17.2454	116.747	62.8231	4	3	0.376306	4.4e-05
	316	4	54.4748	58.1236	78.1344	214	504	3.82657	4.4e-05
	317	4	28.0903	122.131	101.985	1	1	0.433013	4.4e-05
	336	4	64.9154	16.3851	86.613	1	3	0.433013	4.4e-05
	340	5	43.8129	115.495	121.873	1	2	0.498	4.4e-05
	344	4	107.247	14.948	29.4297	1	1	0.433013	4.4e-05
	352	4	102.29	71.2413	19.894	1	2	0.433013	4.4e-05
	354	1	62.4174	20.4647	12.3061	1	0	0.433	4.4e-05
	355	1	70.6688	30.8157	53.9159	1	0	0.433	4.4e-05
	357	1	67.4434	116.41	42.7651	1	0	0.433	4.4e-05
	358	1	73.7699	27.8358	35.5553	1	0	0.433	4.4e-05
	366	2	65.7678	20.5009	86.8561	1	0	0.498	4.4e-05
	367	2	101.608	116.652	3.92991	1	0	0.498	4.4e-05
	369	2	35.6016	26.7369	38.5237	1	0	0.498	4.4e-05
	370	2	69.3616	81.3014	52.5875	1	0	0.498	4.4e-05
	371	2	56.3484	117.424	117.571	1	0	0.498	4.4e-05
	372	2	10.2726	62.1586	98.9139	1	0	0.498	4.4e-05
	373	3	69.5	102.75	10	0	1	0.945	4.4e-05
	377	3	56	83.5	89.25	0	1	0.945	4.4e-05
	383	4	12.6666	15.0456	89.445	1	1	0.433013	4.4e-05
	384	4	74.6313	78.2002	95.3414	1	1	0.433013	4.4e-05
	385	4	37.6772	64.3348	102.917	1	1	0.433013	4.4e-05
	386	4	24.9789	76.0052	8.36159	1	1	0.433013	4.4e-05
	387	4	111.558	105.619	76.0455	1	1	0.433013	4.4e-05
	388	5	65.5776	22.1988	12.9309	1	1	0.498	4.4e-05
	389	5	70.9793	26.5639	37.5528	1	1	0.498	4.4e-05
	390	5	72.382	25.2646	46.2926	2	3	0.645139	4.4e-05
	391	5	40.5067	85.5907	97.7106	166	3	3.04365	4.4e-05
ITEM: TIMESTEP
	20010140
ITEM: NUMBER OF ATOMS
	36
ITEM: BOX BOUNDS
	0	124
	0	128
	0	132
ITEM: ATOMS id type x y z size1 size2 radius time
	40	4	94.9098	68.0715	78.0705	1	1	0.433013	4.60003e-05
	95	1	117.446	79.9489	117.29	1	0	0.433	4.60003e-05
	121	4	34.9421	8.22287	34.3862	1	1	0.433013	4.60003e-05
	138	4	30.3192	91.4972	90.3424	1	3	0.433013	4.60003e-05
	159	4	57.9743	92.4519	1.22911	1	2	0.433013	4.60003e-05
	168	5	46.6066	126.111	98.2346	2	3	0.645139	4.60003e-05
	204	4	21.962	1.69092	42.4544	1	1	0.433013	4.60003e-05
	208	4	64.6891	95.2801	109.033	1	3	0.433013	4.60003e-05
	222	4	38.8676	13.24	87.0098	1	1	0.433013	4.60003e-05
	241	4	66.7316	32.8631	107.881	1	1	0.433013	4.60003e-05
	243	1	3.65109	79.2503	130.95	1	0	0.433	4.60003e-05
	244	1	58.331	57.5384	54.3481	1	0	0.433	4.60003e-05
	250	1	105.832	44.6544	37.5007	1	0	0.433	4.60003e-05
	272	4	54.9331	47.6583	96.204	1	1	0.433013	4.60003e-05
	273	4	1.92772	58.328	60.6622	1	1	0.433013	4.60003e-05