ITEM: TIMESTEP
	0
ITEM: NUMBER OF ATOMS
	0
ITEM: BOX BOUNDS
	0	31
	0	32
	0	33
ITEM: ATOMS id type x y z size1 size2 radius time
ITEM: TIMESTEP
	1897943
ITEM: NUMBER OF ATOMS
	16
ITEM: BOX BOUNDS
	0	31
	0	32
	0	33
ITEM: ATOMS id type x y z size1 size2 radius time
	216	1	11.6536	15.8565	29.7454	1	0	0.433	6.00163
	234	4	12.7946	18.9444	1.80198	1	3	0.433013	6.00163
	239	1	28.3088	16.1459	29.5765	1	0	0.433	6.00163
	248	4	2.428	23.2195	27.5813	1	4	0.433013	6.00163
	258	4	12.7903	29.9981	25.3798	1	7	0.433013	6.00163
	269	4	18.738	2.48001	12.0754	1	2	0.433013	6.00163
	270	1	28.9587	30.5972	25.9713	1	0	0.433	6.00163
	275	4	13.4309	19.9031	10.9918	1	4	0.433013	6.00163
	276	4	9.21113	14.7185	10.9302	1	2	0.433013	6.00163
	285	4	7.07195	10.4371	23.1298	3	17	0.650764	6.00163
	290	1	21.214	4.24051	16.8684	1	0	0.433	6.00163
	293	4	15.3584	12.2093	1.28578	1	3	0.433013	6.00163
	299	4	6.96463	27.4651	2.22082	1	4	0.433013	6.00163
	300	4	25.8519	21.6259	25.3107	1	1	0.433013	6.00163
	301	1	10.0233	10.7631	22.91	1	0	0.433	6.00163
	304	4	24.6167	20.7923	7.76763	1	2	0.433013	6.00163
ITEM: TIMESTEP
	2544859
ITEM: NUMBER OF ATOMS
	24
ITEM: BOX BOUNDS
	0	31
	0	32
	0	33
ITEM: ATOMS id type x y z size1 size2 radius time
	401	4	8.8588	14.8897	10.714	1	4	0.433013	12.0032
	480	4	14.6859	10.0023	16.9121	1	1	0.433013	12.0032
	490	4	2.39445	23.0344	27.3342	1	4	0.433013	12.0032
	497	4	12.6458	19	1.52083	3	11	0.650764	12.0032
	509	4	7.09435	25.479	19.6606	1	2	0.433013	12.0032
	517	4	9.08024	1.75886	23.8986	1	1	0.433013	12.0032
	524	4	6.93286	10.2503	23.1254	5	21	0.782585	12.0032
	538	4	7.02405	27.4202	2.50057	1	4	0.433013	12.0032
	543	4	18.9595	13.0744	4.1552	1	3	0.433013	12.0032
	544	1	22.9197	5.57929	12.6669	1	0	0.433	12.0032
	561	4	27.7951	0.600528	15.3523	1	3	0.433013	12.0032
	570	4	22.5895	27.2272	4.32026	1	1	0.433013	12.0032
	574	4	23.258	23.7977	21.8224	1	1	0.433013	12.0032
	578	4	1.46406	23.842	23.8652	1	4	0.433013	12.0032
	582	4	8.92015	11.802	1.64593	1	2	0.433013	12.0032
	583	1	14.8222	28.6475	17.724	1	0	0.433	12.0032
	589	1	22.3514	0.116853	15.7531	1	0	0.433	12.0032
	592	4	13.2582	29.9702	25.2442	3	14	0.650764	12.0032
	603	4	6.77741	4.5818	8.47892	1	3	0.433013	12.0032
	609	4	16.4753	4.34782	14.8357	1	2	0.433013	12.0032
	610	1	21.9648	22.4551	10.7771	1	0	0.433	12.0032
	613	4	26.5464	16.0856	17.3813	1	3	0.433013	12.0032
	617	4	27.7471	6.82821	0.217984	1	4	0.433013	12.0032
	618	4	7.45947	22.702	21.0031	1	10	0.433013	12.0032
ITEM: TIMESTEP
	3098709
ITEM: NUMBER OF ATOMS
	35
ITEM: BOX BOUNDS
	0	31
	0	32
	0	33
ITEM: ATOMS id type x y z size1 size2 radius time
	653	1	16.2223	17.3353	12.3764	1	0	0.433	18.0001
	691	1	30.7488	4.16281	6.90352	1	0	0.433	18.0001
	705	1	9.28023	1.9434	26.8856	1	0	0.433	18.0001
	731	4	11.9181	10.7941	5.73079	1	2	0.433013	18.0001
	740	1	28.8024	1.88373	27.1961	1	0	0.433	18.0001
	781	4	13.1826	5.73342	30.0932	1	2	0.433013	18.0001
	790	4	18.0396	14.1551	3.8017	1	4	0.433013	18.0001
	830	1	26.9089	30.2414	14.9846	1	0	0.433	18.0001
	838	4	8.94491	14.9963	10.6215	1	4	0.433013	18.0001
	847	4	14.9872	22.2488	8.14976	1	2	0.433013	18.0001
	856	1	18.7227	21.118	7.79457	1	0	0.433	18.0001
	868	4	1.59309	23.8764	24.2536	1	4	0.433013	18.0001
	871	4	6.36096	4.98272	8.34157	1	8	0.433013	18.0001
	872	4	29.1026	6.05807	13.8205	1	3	0.433013	18.0001
	880	4	13.6164	14.7674	24.264	1	1	0.433013	18.0001
	889	4	27.7702	0.829999	15.653	1	4	0.433013	18.0001
	894	4	12.5753	19.2625	1.68755	2	14	0.560991	18.0001
	896	4	7.72382	22.822	21.1662	1	9	0.433013	18.0001
	903	4	18.8897	12.6746	4.0618	1	4	0.433013	18.0001
	908	4	17.1825	31.0418	8.76493	1	3	0.433013	18.0001
	911	1	29.8016	21.1269	2.45567	1	0	0.433	18.0001
	914	4	7.06116	12.3176	7.04026	1	1	0.433013	18.0001
	920	4	11.1165	10.2554	17.3813	1	2	0.433013	18.0001
	927	4	8.5821	1.35354	23.8095	1	4	0.433013	18.0001
	930	1	10.1116	6.90389	32.2031	1	0	0.433	18.0001
	935	1	29.2579	11.0419	6.78622	1	0	0.433	18.0001
	940	4	6.76622	10.2315	23.5046	8	28	1.86626	18.0001
	941	4	10.7993	31.6647	19.9317	1	4	0.433013	18.0001
	942	4	7.04545	26.6591	3.18182	1	10	0.433013	18.0001
	943	1	28.1692	16.8355	0.0517795	1	0	0.433	18.0001
	946	4	16.5401	0.445029	22.2267	1	4	0.433013	18.0001
	949	4	13.4069	30.1253	25.5649	5	19	0.782585	18.0001
	953	4	29.5631	19.8938	1.90544	1	2	0.433013	18.0001
	954	1	2.38241	20.9577	14.3892	1	0	0.433	18.0001
	957	4	24.3611	15	17.2778	1	8	0.433013	18.0001
ITEM: TIMESTEP
	3558206
ITEM: NUMBER OF ATOMS
	41
ITEM: BOX BOUNDS
	0	31
	0	32
	0	33
ITEM: ATOMS id type x y z size1 size2 radius time
	946	4	16.5401	0.445029	22.2267	1	4	0.433013	24.0019
	1025	4	6.57446	12.8271	6.4161	1	4	0.433013	24.0019
	1115	4	17.2424	31.3331	8.94941	1	4	0.433013	24.0019
	1136	4	8.23637	31.809	29.8973	1	1	0.433013	24.0019
	1147	4	21.5022	28.1376	14.5095	1	3	0.433013	24.0019
	1186	4	1.7452	23.8558	23.3689	1	4	0.433013	24.0019
	1203	4	2.84376	26.4633	2.69242	1	1	0.433013	24.0019
	1226	4	13.3096	5.94005	29.7559	1	4	0.433013	24.0019
	1228	4	18.2846	12.9704	4.14646	1	8	0.433013	24.0019
	1229	4	21.9661	10.8326	5.05355	1	4	0.433013	24.0019
	1234	1	12.5915	10.4383	22.178	1	0	0.433	24.0019
	1246	1	7.71666	13.9792	4.6566	1	0	0.433	24.0019
	1272	1	1.07772	25.13	4.10152	1	0	0.433	24.0019
	1276	4	13.4746	30.224	25.5162	5	22	0.782585	24.0019
	1297	4	22.5412	21.4034	12.9871	1	1	0.433013	24.0019
	1301	4	8.375	14.7812	11.0938	1	7	0.433013	24.0019
	1302	1	22.8087	12.4703	10.0319	1	0	0.433	24.0019
	1313	1	29.1604	29.7828	2.58313	1	0	0.433	24.0019
	1314	4	22.4169	31.7127	2.76306	1	1	0.433013	24.0019
	1324	4	11	10.25	17.5	1	8	0.433013	24.0019
	1328	4	8.87663	6.17567	9.76374	1	2	0.433013	24.0019
	1329	1	27.4082	11.9587	9.58714	1	0	0.433	24.0019
	1333	1	11.2913	25.1643	13.484	1	0	0.433	24.0019
	1342	4	28.0888	6.52825	13.1797	1	4	0.433013	24.0019
	1347	4	12.3509	10.8764	5.83847	1	4	0.433013	24.0019
	1353	4	24.5	15	16.75	1	9	0.433013	24.0019
	1354	4	12.5328	19.2837	2.04696	5	18	0.782585	24.0019
	1357	4	6.75	26.5	3	1	8	0.433013	24.0019
	1362	4	21.5487	5.31209	9.34717	1	3	0.433013	24.0019
	1366	4	13.2314	7.39927	10.5579	1	4	0.433013	24.0019
	1370	5	7.90697	20.4134	1.69121	2	3	0.645139	24.0019
	1374	4	2.94517	15.4567	30.2168	1	2	0.433013	24.0019
	1382	4	6.35029	4.91364	8.3024	3	11	0.650764	24.0019
	1384	1	28.0385	26.0814	21.3635	1	0	0.433	24.0019
	1388	1	7.04321	12.4473	13.8818	1	0	0.433	24.0019
	1394	4	4.77414	0.803907	32.2998	1	2	0.433013	24.0019
	1398	1	3.53846	4.772	21.6681	1	0	0.433	24.0019
	1405	4	7.73388	10.1387	24.3724	9	33	1.90569	24.0019
	1407	4	0.680867	1.04048	20.3924	1	4	0.433013	24.0019
	1410	4	7.66285	22.9607	21.1773	4	15	0.722233	24.0019
	1413	4	14.1132	13.6262	24.8046	1	6	0.433013	24.0019
ITEM: TIMESTEP
	3901296
ITEM: NUMBER OF ATOMS
	44
ITEM: BOX BOUNDS
	0	31
	0	32
	0	33
ITEM: ATOMS id type x y z size1 size2 radius time
	1374	4	2.94517	15.4567	30.2168	1	2	0.433013	30
	1407	4	0.680867	1.04048	20.3924	1	4	0.433013	30
	1611	4	10.7956	20.7277	9.75458	1	2	0.433013	30
	1613	1	22.1439	4.51763	21.0973	1	0	0.433	30
	1618	4	12.7086	16.1895	14.6764	1	4	0.433013	30
	1631	4	19.9506	2.36164	1.38778	1	1	0.433013	30
	1633	1	29.1715	9.97855	16.4994	1	0	0.433	30
	1658	4	13.0859	2.07515	27.9932	1	2	0.433013	30
	1659	1	22.0235	12.9242	20.2631	1	0	0.433	30
	1664	4	14.7524	30.8882	6.47003	1	4	0.433013	30
	1682	4	13.0329	6.50459	29.4707	1	4	0.433013	30
	1683	4	13.6344	30.3575	25.5128	9	28	1.90569	30
	1689	4	6.45189	12.7477	6.07429	1	4	0.433013	30
	1693	4	28.3664	26.3327	10.6815	1	3	0.433013	30
	1697	4	24.4944	14.6927	16.6699	3	12	0.650764	30
	1711	4	22.5353	20.9964	12.7429	1	4	0.433013	30
	1720	1	14.8917	23.2786	30.0791	1	0	0.433	30
	1724	4	7.75644	22.9384	21.0853	4	18	0.722233	30
	1725	1	24.0589	12.1533	5.6626	1	0	0.433	30
	1732	4	3.32372	22.5734	5.61964	1	3	0.433013	30
	1738	4	7.75581	20.5945	1.78434	1	4	0.433013	30
	1743	4	23.8123	13.2402	20.8557	1	3	0.433013	30
	1751	1	6.90157	16.3064	14.9026	1	0	0.433	30
	1759	4	16.7917	0.565992	21.9908	1	4	0.433013	30
	1760	4	15.7234	10.2743	17.7999	1	1	0.433013	30
	1761	1	3.99451	9.60018	10.4328	1	0	0.433	30
	1764	4	6.69845	4.82238	8.40659	3	13	0.650764	30
	1769	4	8.225	14.95	11.575	1	9	0.433013	30
	1772	4	18.4369	12.8419	4.08281	3	12	0.650764	30
	1775	4	11.8554	19.0713	2.19441	5	19	0.782585	30
	1776	4	5.64709	25.0688	3.23312	2	14	0.560991	30
	1777	1	14.9607	2.39961	23.5585	1	0	0.433	30
	1784	4	22.7084	31.9189	3.06903	1	3	0.433013	30
	1789	4	24.8478	9.09857	30.241	1	4	0.433013	30
	1793	4	23.6908	7.18819	0.193859	1	3	0.433013	30
	1794	1	9.35954	4.54372	24.7161	1	0	0.433	30
	1797	4	10.9	10.25	17.5	1	9	0.433013	30
	1799	1	9.39162	18.0936	11.3093	1	0	0.433	30
	1800	4	1.65425	18.258	10.1642	1	1	0.433013	30
	1801	4	7.35383	10.3996	24.5379	14	44	2.0682	30
	1802	1	28.8596	18.7251	4.72612	1	0	0.433	30
	1805	4	25.7916	27.3448	13.099	1	1	0.433013	30
	1808	4	21	4.75	10.5	1	8	0.433013	30
	1810	4	3.49157	19.5804	23.0651	1	4	0.433013	30
ITEM: TIMESTEP
	4272468
ITEM: NUMBER OF ATOMS
	41
ITEM: BOX BOUNDS
	0	31
	0	32
	0	33
ITEM: ATOMS id type x y z size1 size2 radius time
	1689	4	6.45189	12.7477	6.07429	1	4	0.433013	36.0002
	1724	4	7.75644	22.9384	21.0853	4	18	0.722233	36.0002
	1776	4	5.64709	25.0688	3.23312	2	14	0.560991	36.0002
	1841	4	10.9	10.25	17.5	1	8	0.433013	36.0002
	1936	1	20.1709	15.8504	16.7417	1	0	0.433	36.0002
	1962	4	23.8884	13.2395	20.2214	2	9	0.560991	36.0002
	2003	4	23.653	19.4059	17.245	1	1	0.433013	36.0002
	2027	4	15.7781	10.4355	18.1928	1	6	0.433013	36.0002
	2028	1	27.1715	1.24275	28.5666	1	0	0.433	36.0002
	2032	4	18.7146	6.58921	26.9491	1	2	0.433013	36.0002
	2044	4	25.1054	7.10789	23.6634	1	1	0.433013	36.0002
	2068	1	25.3704	28.5869	3.84876	1	0	0.433	36.0002
	2111	4	27.4287	7.74676	22.5684	1	1	0.433013	36.0002
	2119	4	28.1827	26.6848	10.8578	1	4	0.433013	36.0002
	2132	4	12.6855	16.3786	15.109	1	4	0.433013	36.0002
	2144	4	18.5552	12.9515	4.20164	3	12	0.650764	36.0002
	2151	1	17.971	4.66271	2.31241	1	0	0.433	36.0002
	2156	4	8	15.5	11.25	1	9	0.433013	36.0002
	2157	4	14.6191	28.0321	4.40768	1	3	0.433013	36.0002
	2163	4	23	21.5	13.25	1	7	0.433013	36.0002
	2167	4	12.0097	2.72122	1.2157	1	1	0.433013	36.0002
	2179	4	24.3981	14.5633	16.6555	3	15	0.650764	36.0002
	2180	1	23.7524	0.660402	18.6095	1	0	0.433	36.0002
	2188	4	13.3602	30.2381	25.84	10	35	1.9423	36.0002
	2189	4	6.73345	4.87324	8.68456	6	21	0.83534	36.0002
	2190	4	3.06857	15.8436	30.0211	1	4	0.433013	36.0002
	2194	4	3.65449	21.9794	5.97286	1	9	0.433013	36.0002
	2195	4	14.4003	30.8857	6.79713	2	6	0.560991	36.0002
	2197	1	26.6883	24.4703	9.42183	1	0	0.433	36.0002
	2202	4	27.3508	21.198	4.55486	1	1	0.433013	36.0002
	2206	4	7.07594	10.456	24.9197	16	51	2.12222	36.0002
	2207	1	15.4349	10.9163	7.54435	1	0	0.433	36.0002
	2210	4	21.225	4.5	10.125	1	9	0.433013	36.0002
	2214	4	23.7411	7.91437	0.572673	4	16	0.722233	36.0002
	2215	1	14.7929	20.6734	29.3403	1	0	0.433	36.0002
	2218	4	17.7061	20.6543	31.2979	1	1	0.433013	36.0002
	2224	4	12.9871	6.76253	29.5836	1	4	0.433013	36.0002
	2225	4	8.83961	13.2407	13.6835	1	4	0.433013	36.0002
	2226	1	11.3827	1.23526	2.81188	1	0	0.433	36.0002
	2229	4	8.07223	30.8335	27.8132	1	1	0.433013	36.0002
	2233	4	11.93	18.9067	2.31959	6	25	0.83534	36.0002
ITEM: TIMESTEP
	4719211
ITEM: NUMBER OF ATOMS
	51
ITEM: BOX BOUNDS
	0	31
	0	32
	0	33
ITEM: ATOMS id type x y z size1 size2 radius time
	1936	1	23.1709	17.8504	30.7417	1	0	0.433	42.0011
	2068	1	16.3704	20.5869	32.8488	1	0	0.433	42.0011
	2111	4	27.4287	7.74676	22.5684	1	1	0.433013	42.0011
	2225	4	8.83961	13.2407	13.6835	1	4	0.433013	42.0011
	2294	1	1.13389	26.0112	31.1152	1	0	0.433	42.0011
	2299	1	0.838337	26.976	9.82548	1	0	0.433	42.0011
	2306	4	18.911	6.50441	26.7118	1	3	0.433013	42.0011
	2340	1	18.6649	6.03482	17.7982	1	0	0.433	42.0011
	2358	4	23.7687	19.7706	17.2467	1	2	0.433013	42.0011
	2368	4	17.5406	20.7021	31.7114	1	3	0.433013	42.0011
	2380	1	11.7068	12.6037	23.893	1	0	0.433	42.0011
	2383	4	27.2463	18.1812	21.7151	1	1	0.433013	42.0011
	2404	4	6.36937	12.6512	5.94048	1	4	0.433013	42.0011
	2416	4	2.88095	15.9053	29.7993	1	4	0.433013	42.0011
	2417	4	27.7338	21.2153	4.36991	1	2	0.433013	42.0011
	2434	4	22.9118	21.1585	12.8545	2	13	0.560991	42.0011
	2484	1	14.5277	13.4735	9.28567	1	0	0.433	42.0011
	2490	4	6.12225	25.1517	3.36557	3	15	0.650764	42.0011
	2495	4	15.9108	10.4221	18.0944	1	8	0.433013	42.0011
	2502	1	29.7327	15.1147	20.3457	1	0	0.433	42.0011
	2508	1	28.1065	11.3877	13.6541	1	0	0.433	42.0011
	2511	4	3.74882	21.8235	5.87314	2	12	0.560991	42.0011
	2513	4	13.5407	3.87754	25.9154	1	2	0.433013	42.0011
	2514	4	24.2401	14.703	16.5311	5	17	0.782585	42.0011
	2529	4	23.9426	7.91544	0.342907	5	17	0.782585	42.0011
	2531	1	9.83091	30.484	28.604	1	0	0.433	42.0011
	2533	1	25.7298	15.3473	26.4093	1	0	0.433	42.0011
	2559	1	25.0467	30.1595	22.5262	1	0	0.433	42.0011
	2562	4	28.8924	5.26308	25.6132	1	2	0.433013	42.0011
	2564	1	27.8723	11.4015	28.1054	1	0	0.433	42.0011
	2570	1	12.8627	4.37985	10.6685	1	0	0.433	42.0011
	2586	4	12.0501	22.2044	1.33993	1	2	0.433013	42.0011
	2589	4	14	31.5	7.25	1	8	0.433013	42.0011
	2590	4	8.19502	15.2861	11.2354	2	11	0.560991	42.0011
	2591	1	27.9019	10.4791	22.5309	1	0	0.433	42.0011
	2594	4	7.58535	11.0235	24.9338	19	62	2.19536	42.0011
	2601	4	0.736425	5.2232	9.99944	1	2	0.433013	42.0011
	2602	1	28.8814	16.259	1.07153	1	0	0.433	42.0011
	2607	4	28	26.5	10.25	1	10	0.433013	42.0011
	2608	4	18.4892	13.0014	4.25154	3	13	0.650764	42.0011
	2613	1	27.8582	26.8527	18.003	1	0	0.433	42.0011
	2621	1	16.6358	0.611572	13.9736	1	0	0.433	42.0011
	2624	4	6.39065	4.95301	8.09924	6	25	0.83534	42.0011
	2629	4	11.075	10.6	17.775	1	8	0.433013	42.0011
	2630	4	24.5078	13.0029	19.5537	1	9	0.433013	42.0011
	2631	1	17.8736	1.25385	1.47798	1	0	0.433	42.0011
	2634	4	21.3349	5.50416	10.0797	1	9	0.433013	42.0011
	2635	1	23.109	11.9729	31.9819	1	0	0.433	42.0011
	2638	4	11.6283	18.2198	2.93622	8	28	1.86626	42.0011
	2641	4	13.1632	30.1916	25.4377	12	40	2.00877	42.0011
	2644	4	7.5349	22.9405	21.0002	6	21	0.83534	42.0011
ITEM: TIMESTEP
	4969265
ITEM: NUMBER OF ATOMS
	56
ITEM: BOX BOUNDS
	0	31
	0	32
	0	33
ITEM: ATOMS id type x y z size1 size2 radius time
	2225	4	8.83961	13.2407	13.6835	1	4	0.433013	48.0002
	2358	4	23.7687	19.7706	17.2467	1	2	0.433013	48.0002
	2590	4	8.19502	15.2861	11.2354	2	11	0.560991	48.0002
	2680	4	11.1382	10.6004	17.7868	2	8	0.560991	48.0002
	2721	1	11.4497	21.5142	30.6812	1	0	0.433	48.0002
	2730	4	2.66038	16.1703	29.7357	1	4	0.433013	48.0002
	2739	4	22.7323	21.2653	12.6673	4	13	0.722233	48.0002
	2767	4	28	26.5	10.25	1	8	0.433013	48.0002
	2794	1	28.7083	9.80316	7.99475	1	0	0.433	48.0002
	2795	4	25.491	13.5596	25.6573	1	1	0.433013	48.0002
	2819	1	24.8065	21.9012	28.2496	1	0	0.433	48.0002
	2857	4	18.2708	12.8905	4.77621	3	14	0.650764	48.0002
	2862	1	9.07445	28.2536	28.3658	1	0	0.433	48.0002
	2870	4	27.6846	8.12392	21.7728	1	4	0.433013	48.0002
	2884	4	20.006	28.166	30.8039	1	1	0.433013	48.0002
	2892	4	21.9579	0.751283	31.4927	1	2	0.433013	48.0002
	2908	4	17.1748	20.5283	32.0718	1	4	0.433013	48.0002
	2923	4	14.5	31.75	8	1	8	0.433013	48.0002
	2926	1	9.85228	23.1017	18.8601	1	0	0.433	48.0002
	2942	4	16.2166	12.8852	1.51086	2	4	0.560991	48.0002
	2954	1	14.0745	25.3087	0.765328	1	0	0.433	48.0002
	2957	4	6.29301	5.29756	8.12365	9	32	1.90569	48.0002
	2961	4	27.8276	21.1547	4.27291	2	2	0.560991	48.0002
	2962	1	13.4711	9.20076	10.0972	1	0	0.433	48.0002
	2968	4	16	9.5	18.25	1	10	0.433013	48.0002
	2970	4	1.52141	28.2963	7.85035	1	1	0.433013	48.0002
	2972	4	0.157186	10.6778	10.2035	2	2	0.560991	48.0002
	2976	4	16.9867	24.0515	22.138	1	4	0.433013	48.0002
	2983	1	3.02199	25.2104	17.8422	1	0	0.433	48.0002
	2986	4	7.27904	23.0221	21.1269	6	23	0.83534	48.0002
	2988	4	29.0509	14.6315	20.5553	2	2	0.560991	48.0002
	2989	1	0.50131	17.7116	32.6428	1	0	0.433	48.0002
	2998	4	27.1612	18.164	22.0167	1	2	0.433013	48.0002
	3005	4	13.7651	3.87299	26.0983	1	2	0.433013	48.0002
	3006	4	24.1214	14.7493	16.4391	5	19	0.782585	48.0002
	3021	4	1.18656	23.0176	9.55018	1	1	0.433013	48.0002
	3025	4	10.4484	27.0269	12.6021	1	1	0.433013	48.0002
	3031	4	24.0999	8.51744	12.8141	1	1	0.433013	48.0002
	3034	4	21.5	6	10.25	1	10	0.433013	48.0002
	3039	4	24.5	13.0833	19.8333	3	11	0.650764	48.0002
	3045	4	13.5995	30.2201	25.1986	13	44	2.03925	48.0002
	3048	4	21.9704	15.7222	6.65495	1	1	0.433013	48.0002
	3049	1	5.54876	10.8824	15.2264	1	0	0.433	48.0002
	3057	4	12.1951	18.11	2.60379	10	34	1.9423	48.0002
	3061	4	10.5364	12.2492	28.6354	1	2	0.433013	48.0002
	3064	4	7.59689	11.1304	24.8388	21	67	2.23993	48.0002
	3067	4	23.7848	7.82884	0.380397	5	18	0.782585	48.0002
	3071	4	1.93587	3.89755	14.7485	1	2	0.433013	48.0002
	3072	1	11.8805	19.0665	18.1149	1	0	0.433	48.0002
	3076	4	0.100484	8.30728	26.3827	1	3	0.433013	48.0002
	3081	4	3.81559	21.6393	5.96144	3	12	0.650764	48.0002
	3082	4	6.11456	25.1853	3.37197	4	16	0.722233	48.0002
	3085	1	29.291	2.68475	13.3018	1	0	0.433	48.0002
	3089	4	25.1154	2.47649	11.7722	1	1	0.433013	48.0002
	3091	1	9.9733	18.6092	22.5523	1	0	0.433	48.0002
	3092	1	10.5464	17.9326	20.4965	1	0	0.433	48.0002
ITEM: TIMESTEP
	5276391
ITEM: NUMBER OF ATOMS
	53
ITEM: BOX BOUNDS
	0	31
	0	32
	0	33
ITEM: ATOMS id type x y z size1 size2 radius time
	2730	4	2.66038	16.1703	29.7357	1	4	0.433013	54.0009
	2767	4	28	26.5	10.25	1	8	0.433013	54.0009
	2988	4	29.0509	14.6315	20.5553	2	2	0.560991	54.0009
	3076	4	0.100484	8.30728	26.3827	1	3	0.433013	54.0009
	3163	4	30.9299	10.7449	10.0534	1	2	0.433013	54.0009
	3190	4	21.8247	1.00077	31.5956	1	4	0.433013	54.0009
	3205	1	1.00357	3.08025	30.2642	1	0	0.433	54.0009
	3241	4	7.26575	23.1059	21.0165	5	23	0.782585	54.0009
	3247	4	6.15673	25.1527	3.41378	4	17	0.722233	54.0009
	3256	1	29.5512	30.0084	31.6098	1	0	0.433	54.0009
	3259	4	7.53855	13.2751	2.68325	1	1	0.433013	54.0009
	3272	4	4.61743	15.9506	18.87	1	2	0.433013	54.0009
	3279	1	25.1133	23.9938	23.5124	1	0	0.433	54.0009
	3289	4	25.3077	2.17575	11.4486	1	3	0.433013	54.0009
	3298	4	8.28865	15.4752	11.2197	3	12	0.650764	54.0009
	3303	4	9.91772	2.63616	4.73999	1	1	0.433013	54.0009
	3330	4	24.1458	8.51981	12.8676	1	1	0.433013	54.0009
	3332	1	16.4356	14.8944	19.5293	1	0	0.433	54.0009
	3337	4	23.7704	7.7616	0.148116	5	22	0.782585	54.0009
	3345	4	14.5	0.25	8	1	8	0.433013	54.0009
	3354	4	8.95228	13.2172	13.6208	2	4	0.560991	54.0009
	3355	1	8.51389	24.8492	1.61831	1	0	0.433	54.0009
	3363	4	16.1136	9.5	18.2273	1	9	0.433013	54.0009
	3371	1	26.897	8.27878	5.20655	1	0	0.433	54.0009
	3380	4	16.1281	12.6535	1.06084	1	4	0.433013	54.0009
	3382	1	29.8578	24.0864	20.5728	1	0	0.433	54.0009
	3385	4	1.29104	23.3451	9.45012	1	2	0.433013	54.0009
	3387	4	1.67126	23.8369	19.7892	1	4	0.433013	54.0009
	3395	4	1.93094	28.3642	7.90023	1	2	0.433013	54.0009
	3397	4	27.6848	23.9376	6.11919	1	1	0.433013	54.0009
	3403	1	16.7593	13.4651	8.69436	1	0	0.433	54.0009
	3404	1	16.2723	3.17196	18.9771	1	0	0.433	54.0009
	3406	1	12.1602	24.3725	19.7541	1	0	0.433	54.0009
	3407	1	9.76043	24.5907	23.3392	1	0	0.433	54.0009
	3408	1	17.3788	8.84773	2.73178	1	0	0.433	54.0009
	3412	4	10.2242	27.0135	12.0511	1	3	0.433013	54.0009
	3415	4	18.5014	12.9583	4.63572	4	15	0.722233	54.0009
	3424	1	16.6376	25.1685	8.94502	1	0	0.433	54.0009
	3430	4	3.90292	21.4024	5.92773	4	12	0.722233	54.0009
	3434	4	17.4387	20.1333	31.9027	2	7	0.560991	54.0009
	3438	4	24.1788	14.5737	16.5959	6	21	0.83534	54.0009
	3439	1	19.2718	11.7374	16.6268	1	0	0.433	54.0009
	3443	4	22.8315	21.2507	12.8174	3	13	0.650764	54.0009
	3444	1	20.5629	25.5978	0.894192	1	0	0.433	54.0009
	3450	4	16.6658	23.9443	22.7063	3	9	0.650764	54.0009
	3458	4	13.7991	30.2964	25.4607	15	49	2.09581	54.0009
	3462	4	21.75	5.5	10	1	10	0.433013	54.0009
	3465	4	12.4592	18.2769	2.49606	11	38	1.97654	54.0009
	3468	4	7.81845	11.3606	24.8696	24	76	2.30176	54.0009
	3472	4	10.6947	10.0193	17.6586	3	12	0.650764	54.0009
	3476	4	24.3641	13.2248	20.0394	3	12	0.650764	54.0009
	3479	4	27.1453	9.12824	22.7753	1	4	0.433013	54.0009
	3482	4	6.13524	4.65672	8.68179	10	34	1.9423	54.0009
ITEM: TIMESTEP
	5535851
ITEM: NUMBER OF ATOMS
	47
ITEM: BOX BOUNDS
	0	31
	0	32
	0	33
ITEM: ATOMS id type x y z size1 size2 radius time
	3076	4	0.100484	8.30728	26.3827	1	3	0.433013	60.0008
	3272	4	4.61743	15.9506	18.87	1	2	0.433013	60.0008
	3345	4	14.5	0.25	8	1	8	0.433013	60.0008
	3355	1	24.0139	17.3492	26.1183	1	0	0.433	60.0008
	3407	1	11.2604	8.09067	24.8392	1	0	0.433	60.0008
	3434	4	17.4387	20.1333	31.9027	2	7	0.560991	60.0008
	3472	4	10.6947	10.0193	17.6586	3	12	0.650764	60.0008
	3520	4	16.052	9.53586	18.2547	2	9	0.560991	60.0008
	3530	1	18.5362	5.57235	10.6325	1	0	0.433	60.0008
	3538	4	1.28078	23.6338	9.33759	1	3	0.433013	60.0008
	3561	4	8.99613	13.3241	13.5599	3	4	0.650764	60.0008
	3562	1	1.56675	18.9815	12.6465	1	0	0.433	60.0008
	3578	4	2.75865	15.9753	29.6964	1	4	0.433013	60.0008
	3600	4	8.16914	15.4681	11.1055	5	13	0.782585	60.0008
	3609	4	1.59115	23.9492	19.8397	1	4	0.433013	60.0008
	3623	4	12.6261	30.9602	18.2922	1	2	0.433013	60.0008
	3631	4	18.4056	12.8403	4.60387	5	17	0.782585	60.0008
	3643	4	21.2979	28.3855	3.64113	1	1	0.433013	60.0008
	3679	1	20.5549	22.5698	9.56524	1	0	0.433	60.0008
	3726	4	24.5094	13.2886	20.3251	4	14	0.722233	60.0008
	3750	4	2.91242	28.2714	8.61692	1	4	0.433013	60.0008
	3753	4	15.9368	12.3174	1.78034	1	4	0.433013	60.0008
	3759	4	27.337	9.221	22.9273	1	4	0.433013	60.0008
	3765	4	5.86245	4.72554	8.41347	11	39	1.97654	60.0008
	3768	4	22.8504	21.3317	12.8557	4	15	0.722233	60.0008
	3773	4	16.969	23.6221	22.8413	1	10	0.433013	60.0008
	3777	4	1.96327	5.99123	16.8785	1	1	0.433013	60.0008
	3778	1	17.0879	10.9909	10.6885	1	0	0.433	60.0008
	3785	4	23.6222	8.39748	12.843	1	2	0.433013	60.0008
	3787	4	0.048291	10.7891	9.81837	1	4	0.433013	60.0008
	3796	1	11.0737	27.4821	17.4118	1	0	0.433	60.0008
	3801	4	21.7083	5.625	9.83333	3	11	0.650764	60.0008
	3807	4	24.3257	14.8231	16.1891	8	29	1.86626	60.0008
	3810	4	7.48475	11.4947	25.3593	25	78	2.32122	60.0008
	3813	4	21.11	1.22943	31.5229	1	4	0.433013	60.0008
	3816	4	12.8911	18.3373	2.69917	11	39	1.97654	60.0008
	3818	4	5.71289	25.6223	3.09042	4	17	0.722233	60.0008
	3822	4	7.40839	23.2608	21.1006	6	25	0.83534	60.0008
	3827	4	13.7351	30.0681	24.875	16	51	2.12222	60.0008
	3828	1	24.9925	31.4027	29.6904	1	0	0.433	60.0008
	3831	4	8.00123	17.9845	26.0267	1	1	0.433013	60.0008
	3832	4	23.5296	7.94715	0.0278342	7	23	1.82339	60.0008
	3834	1	12.1752	21.5514	21.5943	1	0	0.433	60.0008
	3835	1	11.1516	30.5717	13.2142	1	0	0.433	60.0008
	3836	1	7.09822	22.6627	7.38668	1	0	0.433	60.0008
	3839	4	4.2609	20.941	6.6703	3	14	0.650764	60.0008
	3840	4	28.1136	26.5	10.2727	1	10	0.433013	60.0008
ITEM: TIMESTEP
	5846869
ITEM: NUMBER OF ATOMS
	54
ITEM: BOX BOUNDS
	0	31
	0	32
	0	33
ITEM: ATOMS id type x y z size1 size2 radius time
	3561	4	8.99613	13.3241	13.5599	3	4	0.650764	66.0001
	3679	1	14.5549	28.5698	30.5652	1	0	0.433	66.0001
	3750	4	2.91242	28.2714	8.61692	1	4	0.433013	66.0001
	3778	1	26.5879	22.4909	29.1885	1	0	0.433	66.0001
	3876	4	16.1209	9.49188	18.0617	2	11	0.560991	66.0001
	3942	4	28.1136	26.5	10.2727	1	8	0.433013	66.0001
	3955	1	9.10651	31.2447	23.1793	1	0	0.433	66.0001
	3977	4	24.3308	31.8842	24.3135	1	2	0.433013	66.0001
	4011	4	1.677	23.9822	19.8681	2	4	0.560991	66.0001
	4029	4	21.532	28.4237	3.34408	1	2	0.433013	66.0001
	4031	1	19.6814	2.61611	11.5559	1	0	0.433	66.0001
	4049	4	23.7307	8.34405	12.9837	2	2	0.560991	66.0001
	4085	4	10.6402	2.17201	9.0387	1	1	0.433013	66.0001
	4086	4	17.4462	20.0095	32.0373	1	8	0.433013	66.0001
	4092	4	9.04797	24.0568	32.1991	1	1	0.433013	66.0001
	4095	1	3.16701	0.100257	15.0079	1	0	0.433	66.0001
	4099	4	10.8249	10.0035	17.642	2	14	0.560991	66.0001
	4124	4	24	13.5	20.25	4	14	0.722233	66.0001
	4129	1	29.0223	16.3822	26.8017	1	0	0.433	66.0001
	4139	4	1.49082	6.37281	15.9071	1	7	0.433013	66.0001
	4145	4	16.624	23.5537	22.9442	1	8	0.433013	66.0001
	4147	1	1.16217	10.1114	12.5004	1	0	0.433	66.0001
	4163	1	20.3671	2.72388	14.0672	1	0	0.433	66.0001
	4186	4	22.7746	21.4589	12.8232	3	16	0.650764	66.0001
	4190	1	27.2516	4.71491	12.4283	1	0	0.433	66.0001
	4212	4	21.729	5.71386	9.9153	4	14	0.722233	66.0001
	4220	4	1.89673	24.6831	10.2066	1	4	0.433013	66.0001
	4221	1	3.74431	20.5491	4.43024	1	0	0.433	66.0001
	4224	4	3.258	12.5475	26.0388	1	4	0.433013	66.0001
	4230	4	23.7397	14.8032	16.5496	9	31	1.90569	66.0001
	4233	4	13.0684	18.1177	2.24012	14	46	2.0682	66.0001
	4235	4	3.41129	8.57583	15.8929	1	3	0.433013	66.0001
	4236	4	4.15051	21.1529	6.7154	5	15	0.782585	66.0001
	4241	4	17.8326	26.8573	15.8018	1	1	0.433013	66.0001
	4247	4	7.4726	23.9497	21.0042	8	28	1.86626	66.0001
	4249	1	15.9667	14.3855	9.70659	1	0	0.433	66.0001
	4252	4	2.16951	13.4553	2.57156	1	1	0.433013	66.0001
	4253	1	15.126	10.19	18.5305	1	0	0.433	66.0001
	4259	4	23.8067	7.90923	32.9873	8	28	1.86626	66.0001
	4267	4	18.4875	12.7746	4.6242	5	17	0.782585	66.0001
	4271	4	3.5279	0.239693	20.5655	1	1	0.433013	66.0001
	4272	4	8.02634	15.4735	10.8974	3	15	0.650764	66.0001
	4276	4	28.3866	6.06562	27.5206	1	1	0.433013	66.0001
	4280	4	18.3538	16.4566	25.7632	1	3	0.433013	66.0001
	4282	4	14.4091	0.0909091	8.38636	3	10	0.650764	66.0001
	4288	4	5.54773	4.87169	8.17498	13	45	2.03925	66.0001
	4291	4	1.65596	16.066	30.124	1	4	0.433013	66.0001
	4292	1	7.44766	20.6004	1.38043	1	0	0.433	66.0001
	4295	4	5.73913	25.7585	3.09155	5	21	0.782585	66.0001
	4296	4	27.6241	9.17325	23.0374	2	5	0.560991	66.0001
	4297	1	30.6713	21.334	28.672	1	0	0.433	66.0001
	4300	4	5.62382	19.5384	18.0953	1	2	0.433013	66.0001
	4309	4	13.8124	30.2146	24.6231	16	54	2.12222	66.0001
	4310	4	7.66933	11.5638	25.5451	26	81	2.34016	66.0001
ITEM: TIMESTEP
	6083007
ITEM: NUMBER OF ATOMS
	54
ITEM: BOX BOUNDS
	0	31
	0	32
	0	33
ITEM: ATOMS id type x y z size1 size2 radius time
	4092	4	9.04797	24.0568	32.1991	1	1	0.433013	72.0001
	4353	4	5.78037	19.5288	17.8215	1	3	0.433013	72.0001
	4445	4	2.69037	15.356	29.4965	1	4	0.433013	72.0001
	4459	4	1.6964	24.0648	20.1269	1	4	0.433013	72.0001
	4503	1	28.6259	1.28988	7.20126	1	0	0.433	72.0001
	4507	4	21.5499	5.71393	9.93833	3	14	0.650764	72.0001
	4515	4	8.38806	13.591	14.075	1	4	0.433013	72.0001
	4522	1	4.67911	26.4895	24.6351	1	0	0.433	72.0001
	4546	4	3.53542	12.2539	26.2181	1	7	0.433013	72.0001
	4548	4	17.5266	19.9585	32.1336	1	8	0.433013	72.0001
	4549	4	18.4261	12.8767	4.57219	5	19	0.782585	72.0001
	4569	4	10.5836	9.99248	17.5016	4	18	0.722233	72.0001
	4573	4	30.5659	19.6168	31.1268	1	2	0.433013	72.0001
	4583	4	7.68206	23.9355	20.9356	8	28	1.86626	72.0001
	4584	4	13.21	26.9645	0.346774	1	1	0.433013	72.0001
	4602	4	27.8406	8.89188	23.2505	1	4	0.433013	72.0001
	4603	4	26.5168	9.25055	22.761	1	1	0.433013	72.0001
	4610	4	5.82459	25.6378	3.11681	6	23	0.83534	72.0001
	4618	4	23.8845	8.59483	13.1095	1	3	0.433013	72.0001
	4629	1	25.3622	13.1783	27.7753	1	0	0.433	72.0001
	4647	4	15.935	10.4583	17.5848	3	12	0.650764	72.0001
	4673	4	23.6289	13.6267	20.4235	4	15	0.722233	72.0001
	4676	4	7.79549	15.7081	10.768	5	17	0.782585	72.0001
	4677	5	23.4051	0.596879	24.7964	2	2	0.645139	72.0001
	4678	1	26.5569	17.9955	31.5205	1	0	0.433	72.0001
	4683	1	9.8463	22.021	26.9055	1	0	0.433	72.0001
	4686	4	19.5417	0.441017	15.7002	1	2	0.433013	72.0001
	4695	4	23.7914	7.91307	0.0978463	9	33	1.90569	72.0001
	4702	4	16.578	23.5058	23.1936	1	8	0.433013	72.0001
	4703	1	8.23848	31.6908	16.7971	1	0	0.433	72.0001
	4708	4	13.9943	30.4885	24.7356	18	59	2.17189	72.0001
	4710	4	21.6595	28.1481	3.62838	1	3	0.433013	72.0001
	4714	4	12.0149	15.9217	14.946	1	1	0.433013	72.0001
	4725	4	22.8793	21.6059	13.3081	6	20	0.83534	72.0001
	4728	4	19.126	15.2617	25.88	1	4	0.433013	72.0001
	4740	1	6.88597	26.9082	27.8822	1	0	0.433	72.0001
	4744	4	8.08413	21.4898	30.7875	1	1	0.433013	72.0001
	4746	4	5.20828	28.3057	26.3661	1	4	0.433013	72.0001
	4750	4	15.7406	10.8469	0.671871	1	1	0.433013	72.0001
	4754	4	3.86445	21.1855	6.96082	4	17	0.722233	72.0001
	4759	1	0.397447	12.7735	1.95629	1	0	0.433	72.0001
	4769	4	7.44053	11.6284	25.7216	27	84	2.35863	72.0001
	4773	4	2.31803	6.99436	15.9483	1	8	0.433013	72.0001
	4774	4	13.0816	18.2575	2.00096	16	49	2.12222	72.0001
	4775	1	5.24212	8.51607	20.9261	1	0	0.433	72.0001
	4778	4	5.66427	4.56132	7.79997	14	47	2.0682	72.0001
	4779	1	12.2414	28.5188	30.2398	1	0	0.433	72.0001
	4782	4	2.80269	23.0663	27.1423	1	1	0.433013	72.0001
	4784	4	2.23425	18.0168	26.2844	1	4	0.433013	72.0001
	4785	1	4.24404	3.06318	25.4117	1	0	0.433	72.0001
	4788	4	27.9545	26.3182	10.5682	1	10	0.433013	72.0001
	4790	4	14.1667	0.05	8.5	3	12	0.650764	72.0001
	4791	1	1.2375	20.4226	15.9425	1	0	0.433	72.0001
	4796	4	23.4076	15.0462	16.0876	10	34	1.9423	72.0001
ITEM: TIMESTEP
	6392706
ITEM: NUMBER OF ATOMS
	56
ITEM: BOX BOUNDS
	0	31
	0	32
	0	33
ITEM: ATOMS id type x y z size1 size2 radius time
	4353	4	5.78037	19.5288	17.8215	1	3	0.433013	78.0018
	4503	1	9.12587	7.78988	29.7013	1	0	0.433	78.0018
	4573	4	30.5659	19.6168	31.1268	1	2	0.433013	78.0018
	4784	4	2.23425	18.0168	26.2844	1	4	0.433013	78.0018
	4797	4	2.64155	15.2589	29.4065	2	4	0.560991	78.0018
	4807	4	13.5567	27.143	0.564516	1	2	0.433013	78.0018
	4922	4	16.25	11	17.5	3	12	0.650764	78.0018
	4935	4	17.624	19.9877	32.2202	1	9	0.433013	78.0018
	4956	1	3.90848	8.4878	32.8184	1	0	0.433	78.0018
	4961	4	27.9375	26.2083	10.5625	3	11	0.650764	78.0018
	4967	1	4.28526	27.4991	30.1793	1	0	0.433	78.0018
	4996	4	27.5291	16.3793	28.6213	1	1	0.433013	78.0018
	5056	4	17.9508	12.7917	4.65126	5	19	0.782585	78.0018
	5068	4	21.6027	5.67427	9.90009	3	15	0.650764	78.0018
	5086	1	3.57969	13.9501	20.8469	1	0	0.433	78.0018
	5101	4	14.0882	0.102941	8.5	3	14	0.650764	78.0018
	5113	4	25.5872	25.7234	28.0178	1	2	0.433013	78.0018
	5119	4	22.8486	21.6984	13.3452	6	23	0.83534	78.0018
	5131	4	7.75797	24.0063	20.7002	8	29	1.86626	78.0018
	5143	4	26.6264	13.0382	13.5432	1	1	0.433013	78.0018
	5146	4	5.27162	4.10269	8.14349	15	51	2.09581	78.0018
	5159	1	17.9436	9.25155	4.54958	1	0	0.433	78.0018
	5162	4	23.7606	8.06291	0.19147	11	36	1.97654	78.0018
	5173	4	4.84116	5.53432	17.1241	1	1	0.433013	78.0018
	5183	4	23.6232	14.826	16.0953	10	35	1.9423	78.0018
	5194	4	17.5	23	23.75	1	8	0.433013	78.0018
	5196	4	13.0601	18.2018	2.04016	17	56	2.14754	78.0018
	5197	4	3.70244	12.5202	26.0263	2	7	0.560991	78.0018
	5198	1	10.379	29.2782	12.3725	1	0	0.433	78.0018
	5202	4	10.5578	10.0105	17.417	5	21	0.782585	78.0018
	5215	1	0.629488	10.7374	25.1842	1	0	0.433	78.0018
	5218	4	2.24572	12.5094	32.6199	1	1	0.433013	78.0018